TMPDIR created
cp: cannot stat '/home/unamur/ucpts/ndeveaux/BASISSETS.DAT': No such file or directory
          64 PROCESSORS WORKING

         
 *******************************************************************************
 *                                                                             *
 *                               CRYSTAL23                                     *
 *                      public : 1.0.1 - October 2022                          *
 *                       HTTP://WWW.CRYSTAL.UNITO.IT                           *
 *                                                                             *
 *                              MAIN AUTHORS                                   *
 *                                                                             *
 *  R. DOVESI(1,11), V.R. SAUNDERS(2), C. ROETTI(1,11), R. ORLANDO(1,11),      *
 *  C.M. ZICOVICH-WILSON(1,3), F. PASCALE(4), B. CIVALLERI(1,11),              *
 *  K. DOLL(5), N.M. HARRISON(6), I.J. BUSH(7), Ph. D'ARCO(8),                 *
 *  M. LLUNELL(9), M. CAUSA'(10), Y. NOEL(8), L. MASCHIO(1,11), A. ERBA(1,11)  *
 *  M. RE'RAT(14), S. CASASSA(1,11), B.G. SEARLE(2), J.K. DESMARAIS(1)         *
 *                                                                             *
 *        CONTRIBUTIONS TO THE CODE HAVE ALSO BEEN GIVEN BY                    *
 *                                                                             *
 *  M. FERRABONE(1,11), M. DE LA PIERRE(1,11), M. FERRERO(1,11),               *
 *  J. BAIMA(1,11), E. ALBANESE(1,11), M.F. PEINTINGER(12), R. BAST(13),       *
 *  B. KIRTMAN(15), V. LACIVITA(1,11), R. DEMICHELIS(1,16)                     *
 *  G. BRANDEBURG(17), S. SALUSTRO(1,11), G. SANSONE(1,11)                     *
 *  M.T. RUGGIERO(18), L.E. DAGA(1), L. DONA'(1), A. COSSARD(1)                *
 *                                                                             *
 * (1) THEORETICAL CHEMISTRY GROUP - UNIVERSITA' DI TORINO - TORINO (ITALY)    *
 * (2) SCIENTIFIC COMPUTING DEPARTMENT - STFC DARESBURY (UK)                   *
 * (3) UNIVERSIDAD AUTONOMA DEL ESTADO DE MORELOS - CUERNAVACA (MEXICO)        *
 * (4) UNIVERSITE' DE LORRAINE - NANCY (FRANCE)                                *
 * (5) UNIVERSITAET STUTTGART- STUTTGART (GERMANY)                             *
 * (6) IMPERIAL COLLEGE - LONDON (UK)                                          *
 * (7) SCIENTIFIC COMPUTING DEPARTMENT - STFC RAL (UK)                         *
 * (8) UPMC - SORBONNE UNIVERSITES - PARIS (FRANCE)                            *
 * (9) UNIVERSIDAD DE BARCELONA - BARCELONA (SPAIN)                            *
 *(10) UNIVERSITA' DI NAPOLI "FEDERICO II" - NAPOLI (ITALY)                    *
 *(11) NIS - NANOSTRUCTURED INTERFACES AND SURFACES - TORINO (ITALY)           *
 *(12) MPI FUER CHEMISCHE ENERGIEKONVERSION - MUELHEIM AN DER RUHR (GERMANY)   *
 *(13) UNIVERSITY OF TROMSO - TROMSO (NORWAY)                                  *
 *(14) UNIVERSITE' DE PAU ET DES PAYS DE L'ADOUR - PAU (FRANCE)                *
 *(15) UNIVERSITY OF CALIFORNIA SANTA BARBARA - SANTA BARBARA (USA)            *
 *(16) CURTIN UNIVERSITY - PERTH (AUSTRALIA)                                   *
 *(17) UNIVERSITY COLLEGE LONDON - LONDON (UK)                                 *
 *(18) UNIVERSITY OF VERMONT - BURLINGTON (USA)                                *
 *                                                                             *
 *******************************************************************************
 EEEEEEEEEE STARTING  DATE 26 07 2024 TIME 16:21:13.0
 ANIL4AKETON                                                                     

 CRYSTAL CALCULATION
 (INPUT ACCORDING TO THE INTERNATIONAL TABLES FOR X-RAY CRYSTALLOGRAPHY)
 CRYSTAL FAMILY                       :  TRICLINIC   
 CRYSTAL CLASS  (GROTH - 1921)        :  TRICLINIC PEDIAL                     

 SPACE GROUP (NONCENTROSYMMETRIC)     :  P 1             

 LATTICE PARAMETERS  (ANGSTROMS AND DEGREES) - CONVENTIONAL CELL
        A           B           C        ALPHA        BETA       GAMMA
    29.47800     7.02710     6.09590    90.00000    99.20900    90.00000


 NUMBER OF IRREDUCIBLE ATOMS IN THE CONVENTIONAL CELL:  132

 INPUT COORDINATES

 ATOM AT. N.              COORDINATES
   1   6     3.548700000000E-01  8.202000000000E-01  8.426000000000E-01
   2   1     3.519000000000E-01  8.742000000000E-01  9.789000000000E-01
   3   6     3.979850000000E-01  7.939000000000E-01  7.848000000000E-01
   4   6     3.626450000000E-01  3.316000000000E-01  9.280000000000E-01
   5   6     3.626450000000E-01  6.684000000000E-01  4.280000000000E-01
   6   1     3.651500000000E-01  3.798000000000E-01  7.883000000000E-01
   7   1     3.651500000000E-01  6.202000000000E-01  2.883000000000E-01
   8   6     3.161250000000E-01  7.657000000000E-01  6.961000000000E-01
   9   6     3.196450000000E-01  3.114000000000E-01  9.875000000000E-01
  10   6     3.196450000000E-01  6.886000000000E-01  4.875000000000E-01
  11   1     2.934500000000E-01  3.484000000000E-01  8.909000000000E-01
  12   1     2.934500000000E-01  6.516000000000E-01  3.909000000000E-01
  13   6     4.027150000000E-01  7.189000000000E-01  5.735000000000E-01
  14   6     4.468200000000E-01  7.012000000000E-01  5.029000000000E-01
  15   1     4.482500000000E-01  3.367000000000E-01  8.580000000000E-01
  16   1     4.482500000000E-01  6.633000000000E-01  3.580000000000E-01
  17   6     6.550500000000E-02  6.607570000000E-01  7.151030000000E-01
  18   1     6.230000000000E-02  6.120570000000E-01  8.536030000000E-01
  19   6     2.699000000000E-02  7.271570000000E-01  5.724030000000E-01
  20   6     3.147400000000E-02  2.017880000000E-01  8.444590000000E-01
  21   6     3.237000000000E-02  8.051570000000E-01  3.661030000000E-01
  22   1     5.563000000000E-03  1.681460000000E-01  7.440940000000E-01
  23   1     7.000000000000E-03  8.521570000000E-01  2.713030000000E-01
  24   6     7.454100000000E-02  1.936320000000E-01  7.812500000000E-01
  25   6     7.551500000000E-02  8.119570000000E-01  3.036030000000E-01
  26   1     7.738400000000E-02  1.545210000000E-01  6.383070000000E-01
  27   1     7.895000000000E-02  8.635570000000E-01  1.667030000000E-01
  28   6     1.137490000000E-01  2.435140000000E-01  9.309210000000E-01
  29   6     1.139200000000E-01  7.420570000000E-01  4.450030000000E-01
  30   6     1.084150000000E-01  6.670570000000E-01  6.514030000000E-01
  31   1     1.338500000000E-01  6.209570000000E-01  7.467030000000E-01
  32   6     1.602940000000E-01  2.437890000000E-01  8.683050000000E-01
  33   6     1.604200000000E-01  7.398570000000E-01  3.819030000000E-01
  34   6     2.042340000000E-01  2.085780000000E-01  5.797370000000E-01
  35   6     2.048950000000E-01  7.942570000000E-01  9.900300000000E-02
  36   1     2.005530000000E-01  1.708060000000E-01  4.265950000000E-01
  37   1     2.258450000000E-01  1.254740000000E-01  6.671210000000E-01
  38   1     2.276000000000E-01  8.650570000000E-01  1.966030000000E-01
  39   1     2.153950000000E-01  3.369310000000E-01  5.942010000000E-01
  40   1     2.142500000000E-01  6.636570000000E-01  9.600300000000E-02
  41   7     4.844000000000E-01  7.368000000000E-01  6.364000000000E-01
  42   8     2.746950000000E-01  7.895000000000E-01  7.645000000000E-01
  43   8     4.353900000000E-01  8.391000000000E-01  9.340000000000E-01
  44   8     1.949410000000E-01  2.864310000000E-01  9.957930000000E-01
  45   8     1.943800000000E-01  6.799570000000E-01  5.023030000000E-01
  46   8     1.603230000000E-01  1.971180000000E-01  6.570900000000E-01
  47   8     1.611750000000E-01  8.057570000000E-01  1.782030000000E-01
  48   1     4.630000000000E-01  8.120000000000E-01  8.600000000000E-01
  49   1     2.545000000000E-01  7.490000000000E-01  6.560000000000E-01
  50   6     4.027150000000E-01  2.811000000000E-01  1.073500000000E+00
  51   6     3.161250000000E-01  2.343000000000E-01  1.196100000000E+00
  52   7    -1.560000000000E-02  7.249570000000E-01  6.489030000000E-01
  53   6     2.699000000000E-02  2.610000000000E-01  1.059900000000E+00
  54   6     1.090990000000E-01  2.997610000000E-01  1.146060000000E+00
  55   1     2.018000000000E-01  8.465570000000E-01 -4.809700000000E-02
  56   6     5.269900000000E-01  7.390000000000E-01  5.599000000000E-01
  57   6     3.979850000000E-01  2.061000000000E-01  1.284800000000E+00
  58   6     4.468200000000E-01  2.988000000000E-01  1.002900000000E+00
  59   8     2.746950000000E-01  2.105000000000E-01  1.264500000000E+00
  60   6     3.548700000000E-01  1.798000000000E-01  1.342600000000E+00
  61   6    -5.318000000000E-02  6.893570000000E-01  5.154030000000E-01
  62   7    -1.560000000000E-02  2.632000000000E-01  1.136400000000E+00
  63   6     6.625800000000E-02  3.072690000000E-01  1.210393000000E+00
  64   1     1.350610000000E-01  3.324510000000E-01  1.246801000000E+00
  65   6     5.655050000000E-01  6.726000000000E-01  7.026000000000E-01
  66   6     5.323700000000E-01  8.170000000000E-01  3.536000000000E-01
  67   8     4.353900000000E-01  1.609000000000E-01  1.434000000000E+00
  68   7     4.844000000000E-01  2.632000000000E-01  1.136400000000E+00
  69   1     2.545000000000E-01  2.510000000000E-01  1.156000000000E+00
  70   1     3.519000000000E-01  1.258000000000E-01  1.478900000000E+00
  71   6    -9.728500000000E-02  7.070570000000E-01  5.860030000000E-01
  72   1    -5.175000000000E-02  6.514570000000E-01  3.705030000000E-01
  73   6    -5.318000000000E-02  2.988000000000E-01  1.002900000000E+00
  74   1     6.360300000000E-02  3.433150000000E-01  1.354537000000E+00
  75   1     5.623000000000E-01  6.239000000000E-01  8.411000000000E-01
  76   6     6.084150000000E-01  6.789000000000E-01  6.389000000000E-01
  77   1     5.070000000000E-01  8.640000000000E-01  2.588000000000E-01
  78   6     5.755150000000E-01  8.238000000000E-01  2.911000000000E-01
  79   1     4.630000000000E-01  1.880000000000E-01  1.360000000000E+00
  80   6     5.269900000000E-01  2.610000000000E-01  1.059900000000E+00
  81   6    -1.373550000000E-01  6.565570000000E-01  4.405030000000E-01
  82   6    -1.020150000000E-01  7.820570000000E-01  7.973030000000E-01
  83   6    -9.728500000000E-02  2.811000000000E-01  1.073500000000E+00
  84   1    -5.175000000000E-02  3.367000000000E-01  8.580000000000E-01
  85   1     6.338500000000E-01  6.328000000000E-01  7.342000000000E-01
  86   6     6.139200000000E-01  7.539000000000E-01  4.325000000000E-01
  87   1     5.789500000000E-01  8.754000000000E-01  1.542000000000E-01
  88   6     5.323700000000E-01  1.830000000000E-01  8.536000000000E-01
  89   6     5.655050000000E-01  3.274000000000E-01  1.202600000000E+00
  90   6    -1.803550000000E-01  6.767570000000E-01  5.000030000000E-01
  91   1    -1.348500000000E-01  6.083570000000E-01  3.008030000000E-01
  92   6    -1.451300000000E-01  8.083570000000E-01  8.551030000000E-01
  93   8    -6.461000000000E-02  8.272570000000E-01  9.465030000000E-01
  94   6    -1.020150000000E-01  2.061000000000E-01  1.284800000000E+00
  95   6    -1.373550000000E-01  3.316000000000E-01  9.280000000000E-01
  96   6     6.604200000000E-01  7.517000000000E-01  3.694000000000E-01
  97   1     5.070000000000E-01  1.360000000000E-01  7.588000000000E-01
  98   6     5.755150000000E-01  1.762000000000E-01  7.911000000000E-01
  99   1     5.623000000000E-01  3.761000000000E-01  1.341100000000E+00
 100   6     6.084150000000E-01  3.211000000000E-01  1.138900000000E+00
 101   1    -2.065500000000E-01  6.397570000000E-01  4.034030000000E-01
 102   6    -1.838750000000E-01  7.538570000000E-01  7.086030000000E-01
 103   1    -1.481000000000E-01  8.623570000000E-01  9.914030000000E-01
 104   1    -3.700000000000E-02  8.001570000000E-01  8.725030000000E-01
 105   6    -1.451300000000E-01  1.798000000000E-01  1.342600000000E+00
 106   8    -6.461000000000E-02  1.609000000000E-01  1.434000000000E+00
 107   6    -1.803550000000E-01  3.114000000000E-01  9.875000000000E-01
 108   1    -1.348500000000E-01  3.798000000000E-01  7.883000000000E-01
 109   8     6.943800000000E-01  6.918000000000E-01  4.898000000000E-01
 110   8     6.611750000000E-01  8.176000000000E-01  1.657000000000E-01
 111   1     5.789500000000E-01  1.246000000000E-01  6.542000000000E-01
 112   6     6.139200000000E-01  2.461000000000E-01  9.325000000000E-01
 113   1     6.338500000000E-01  3.672000000000E-01  1.234200000000E+00
 114   8    -2.253050000000E-01  7.776570000000E-01  7.770030000000E-01
 115   6    -1.838750000000E-01  2.343000000000E-01  1.196100000000E+00
 116   1    -1.481000000000E-01  1.258000000000E-01  1.478900000000E+00
 117   1    -2.065500000000E-01  3.484000000000E-01  8.909000000000E-01
 118   6     7.048950000000E-01  8.061000000000E-01  8.650000000000E-02
 119   6     6.604200000000E-01  2.483000000000E-01  8.694000000000E-01
 120   1    -2.455000000000E-01  7.371570000000E-01  6.685030000000E-01
 121   8    -2.253050000000E-01  2.105000000000E-01  1.264500000000E+00
 122   1     7.142500000000E-01  6.755000000000E-01  8.350000000000E-02
 123   1     7.018000000000E-01  8.584000000000E-01 -6.060000000000E-02
 124   1     7.276000000000E-01  8.769000000000E-01  1.841000000000E-01
 125   8     6.611750000000E-01  1.824000000000E-01  6.657000000000E-01
 126   8     6.943800000000E-01  3.082000000000E-01  9.898000000000E-01
 127   1    -2.455000000000E-01  2.510000000000E-01  1.156000000000E+00
 128   6     7.048950000000E-01  1.939000000000E-01  5.865000000000E-01
 129   1     7.142500000000E-01  3.245000000000E-01  5.835000000000E-01
 130   1     7.276000000000E-01  1.231000000000E-01  6.841000000000E-01
 131   1     7.010220000000E-01  1.321060000000E-01  4.448300000000E-01
 132   1    -1.603400000000E-02  2.418010000000E-01  1.288309000000E+00

 *******************************************************************************

 << INFORMATION >>: FROM NOW ON, ALL COORDINATES REFER TO THE PRIMITIVE CELL

 *******************************************************************************

 LATTICE PARAMETERS  (ANGSTROMS AND DEGREES) - PRIMITIVE CELL
       A          B          C        ALPHA      BETA     GAMMA        VOLUME
   29.47800    7.02710    6.09590    90.00000  99.20900  90.00000   1246.459107

 COORDINATES OF THE EQUIVALENT ATOMS (FRACTIONAL UNITS)

 N. ATOM EQUIV AT. N.          X                  Y                  Z

   1   1   1    6 C     3.54870000000E-01 -1.79800000000E-01 -1.57400000000E-01

   2   2   1    1 H     3.51900000000E-01 -1.25800000000E-01 -2.11000000000E-02

   3   3   1    6 C     3.97985000000E-01 -2.06100000000E-01 -2.15200000000E-01

   4   4   1    6 C     3.62645000000E-01  3.31600000000E-01 -7.20000000000E-02

   5   5   1    6 C     3.62645000000E-01 -3.31600000000E-01  4.28000000000E-01

   6   6   1    1 H     3.65150000000E-01  3.79800000000E-01 -2.11700000000E-01

   7   7   1    1 H     3.65150000000E-01 -3.79800000000E-01  2.88300000000E-01

   8   8   1    6 C     3.16125000000E-01 -2.34300000000E-01 -3.03900000000E-01

   9   9   1    6 C     3.19645000000E-01  3.11400000000E-01 -1.25000000000E-02

  10  10   1    6 C     3.19645000000E-01 -3.11400000000E-01  4.87500000000E-01

  11  11   1    1 H     2.93450000000E-01  3.48400000000E-01 -1.09100000000E-01

  12  12   1    1 H     2.93450000000E-01 -3.48400000000E-01  3.90900000000E-01

  13  13   1    6 C     4.02715000000E-01 -2.81100000000E-01 -4.26500000000E-01

  14  14   1    6 C     4.46820000000E-01 -2.98800000000E-01 -4.97100000000E-01

  15  15   1    1 H     4.48250000000E-01  3.36700000000E-01 -1.42000000000E-01

  16  16   1    1 H     4.48250000000E-01 -3.36700000000E-01  3.58000000000E-01

  17  17   1    6 C     6.55050000000E-02 -3.39243000000E-01 -2.84897000000E-01

  18  18   1    1 H     6.23000000000E-02 -3.87943000000E-01 -1.46397000000E-01

  19  19   1    6 C     2.69900000000E-02 -2.72843000000E-01 -4.27597000000E-01

  20  20   1    6 C     3.14740000000E-02  2.01788000000E-01 -1.55541000000E-01

  21  21   1    6 C     3.23700000000E-02 -1.94843000000E-01  3.66103000000E-01

  22  22   1    1 H     5.56300000000E-03  1.68146000000E-01 -2.55906000000E-01

  23  23   1    1 H     7.00000000000E-03 -1.47843000000E-01  2.71303000000E-01

  24  24   1    6 C     7.45410000000E-02  1.93632000000E-01 -2.18750000000E-01

  25  25   1    6 C     7.55150000000E-02 -1.88043000000E-01  3.03603000000E-01

  26  26   1    1 H     7.73840000000E-02  1.54521000000E-01 -3.61693000000E-01

  27  27   1    1 H     7.89500000000E-02 -1.36443000000E-01  1.66703000000E-01

  28  28   1    6 C     1.13749000000E-01  2.43514000000E-01 -6.90790000000E-02

  29  29   1    6 C     1.13920000000E-01 -2.57943000000E-01  4.45003000000E-01

  30  30   1    6 C     1.08415000000E-01 -3.32943000000E-01 -3.48597000000E-01

  31  31   1    1 H     1.33850000000E-01 -3.79043000000E-01 -2.53297000000E-01

  32  32   1    6 C     1.60294000000E-01  2.43789000000E-01 -1.31695000000E-01

  33  33   1    6 C     1.60420000000E-01 -2.60143000000E-01  3.81903000000E-01

  34  34   1    6 C     2.04234000000E-01  2.08578000000E-01 -4.20263000000E-01

  35  35   1    6 C     2.04895000000E-01 -2.05743000000E-01  9.90030000000E-02

  36  36   1    1 H     2.00553000000E-01  1.70806000000E-01  4.26595000000E-01

  37  37   1    1 H     2.25845000000E-01  1.25474000000E-01 -3.32879000000E-01

  38  38   1    1 H     2.27600000000E-01 -1.34943000000E-01  1.96603000000E-01

  39  39   1    1 H     2.15395000000E-01  3.36931000000E-01 -4.05799000000E-01

  40  40   1    1 H     2.14250000000E-01 -3.36343000000E-01  9.60030000000E-02

  41  41   1    7 N     4.84400000000E-01 -2.63200000000E-01 -3.63600000000E-01

  42  42   1    8 O     2.74695000000E-01 -2.10500000000E-01 -2.35500000000E-01

  43  43   1    8 O     4.35390000000E-01 -1.60900000000E-01 -6.60000000000E-02

  44  44   1    8 O     1.94941000000E-01  2.86431000000E-01 -4.20700000000E-03

  45  45   1    8 O     1.94380000000E-01 -3.20043000000E-01 -4.97697000000E-01

  46  46   1    8 O     1.60323000000E-01  1.97118000000E-01 -3.42910000000E-01

  47  47   1    8 O     1.61175000000E-01 -1.94243000000E-01  1.78203000000E-01

  48  48   1    1 H     4.63000000000E-01 -1.88000000000E-01 -1.40000000000E-01

  49  49   1    1 H     2.54500000000E-01 -2.51000000000E-01 -3.44000000000E-01

  50  50   1    6 C     4.02715000000E-01  2.81100000000E-01  7.35000000000E-02

  51  51   1    6 C     3.16125000000E-01  2.34300000000E-01  1.96100000000E-01

  52  52   1    7 N    -1.56000000000E-02 -2.75043000000E-01 -3.51097000000E-01

  53  53   1    6 C     2.69900000000E-02  2.61000000000E-01  5.99000000000E-02

  54  54   1    6 C     1.09099000000E-01  2.99761000000E-01  1.46060000000E-01

  55  55   1    1 H     2.01800000000E-01 -1.53443000000E-01 -4.80970000000E-02

  56  56   1    6 C    -4.73010000000E-01 -2.61000000000E-01 -4.40100000000E-01

  57  57   1    6 C     3.97985000000E-01  2.06100000000E-01  2.84800000000E-01

  58  58   1    6 C     4.46820000000E-01  2.98800000000E-01  2.90000000000E-03

  59  59   1    8 O     2.74695000000E-01  2.10500000000E-01  2.64500000000E-01

  60  60   1    6 C     3.54870000000E-01  1.79800000000E-01  3.42600000000E-01

  61  61   1    6 C    -5.31800000000E-02 -3.10643000000E-01 -4.84597000000E-01

  62  62   1    7 N    -1.56000000000E-02  2.63200000000E-01  1.36400000000E-01

  63  63   1    6 C     6.62580000000E-02  3.07269000000E-01  2.10393000000E-01

  64  64   1    1 H     1.35061000000E-01  3.32451000000E-01  2.46801000000E-01

  65  65   1    6 C    -4.34495000000E-01 -3.27400000000E-01 -2.97400000000E-01

  66  66   1    6 C    -4.67630000000E-01 -1.83000000000E-01  3.53600000000E-01

  67  67   1    8 O     4.35390000000E-01  1.60900000000E-01  4.34000000000E-01

  68  68   1    7 N     4.84400000000E-01  2.63200000000E-01  1.36400000000E-01

  69  69   1    1 H     2.54500000000E-01  2.51000000000E-01  1.56000000000E-01

  70  70   1    1 H     3.51900000000E-01  1.25800000000E-01  4.78900000000E-01

  71  71   1    6 C    -9.72850000000E-02 -2.92943000000E-01 -4.13997000000E-01

  72  72   1    1 H    -5.17500000000E-02 -3.48543000000E-01  3.70503000000E-01

  73  73   1    6 C    -5.31800000000E-02  2.98800000000E-01  2.90000000000E-03

  74  74   1    1 H     6.36030000000E-02  3.43315000000E-01  3.54537000000E-01

  75  75   1    1 H    -4.37700000000E-01 -3.76100000000E-01 -1.58900000000E-01

  76  76   1    6 C    -3.91585000000E-01 -3.21100000000E-01 -3.61100000000E-01

  77  77   1    1 H    -4.93000000000E-01 -1.36000000000E-01  2.58800000000E-01

  78  78   1    6 C    -4.24485000000E-01 -1.76200000000E-01  2.91100000000E-01

  79  79   1    1 H     4.63000000000E-01  1.88000000000E-01  3.60000000000E-01

  80  80   1    6 C    -4.73010000000E-01  2.61000000000E-01  5.99000000000E-02

  81  81   1    6 C    -1.37355000000E-01 -3.43443000000E-01  4.40503000000E-01

  82  82   1    6 C    -1.02015000000E-01 -2.17943000000E-01 -2.02697000000E-01

  83  83   1    6 C    -9.72850000000E-02  2.81100000000E-01  7.35000000000E-02

  84  84   1    1 H    -5.17500000000E-02  3.36700000000E-01 -1.42000000000E-01

  85  85   1    1 H    -3.66150000000E-01 -3.67200000000E-01 -2.65800000000E-01

  86  86   1    6 C    -3.86080000000E-01 -2.46100000000E-01  4.32500000000E-01

  87  87   1    1 H    -4.21050000000E-01 -1.24600000000E-01  1.54200000000E-01

  88  88   1    6 C    -4.67630000000E-01  1.83000000000E-01 -1.46400000000E-01

  89  89   1    6 C    -4.34495000000E-01  3.27400000000E-01  2.02600000000E-01

  90  90   1    6 C    -1.80355000000E-01 -3.23243000000E-01 -4.99997000000E-01

  91  91   1    1 H    -1.34850000000E-01 -3.91643000000E-01  3.00803000000E-01

  92  92   1    6 C    -1.45130000000E-01 -1.91643000000E-01 -1.44897000000E-01

  93  93   1    8 O    -6.46100000000E-02 -1.72743000000E-01 -5.34970000000E-02

  94  94   1    6 C    -1.02015000000E-01  2.06100000000E-01  2.84800000000E-01

  95  95   1    6 C    -1.37355000000E-01  3.31600000000E-01 -7.20000000000E-02

  96  96   1    6 C    -3.39580000000E-01 -2.48300000000E-01  3.69400000000E-01

  97  97   1    1 H    -4.93000000000E-01  1.36000000000E-01 -2.41200000000E-01

  98  98   1    6 C    -4.24485000000E-01  1.76200000000E-01 -2.08900000000E-01

  99  99   1    1 H    -4.37700000000E-01  3.76100000000E-01  3.41100000000E-01

 100 100   1    6 C    -3.91585000000E-01  3.21100000000E-01  1.38900000000E-01

 101 101   1    1 H    -2.06550000000E-01 -3.60243000000E-01  4.03403000000E-01

 102 102   1    6 C    -1.83875000000E-01 -2.46143000000E-01 -2.91397000000E-01

 103 103   1    1 H    -1.48100000000E-01 -1.37643000000E-01 -8.59700000000E-03

 104 104   1    1 H    -3.70000000000E-02 -1.99843000000E-01 -1.27497000000E-01

 105 105   1    6 C    -1.45130000000E-01  1.79800000000E-01  3.42600000000E-01

 106 106   1    8 O    -6.46100000000E-02  1.60900000000E-01  4.34000000000E-01

 107 107   1    6 C    -1.80355000000E-01  3.11400000000E-01 -1.25000000000E-02

 108 108   1    1 H    -1.34850000000E-01  3.79800000000E-01 -2.11700000000E-01

 109 109   1    8 O    -3.05620000000E-01 -3.08200000000E-01  4.89800000000E-01

 110 110   1    8 O    -3.38825000000E-01 -1.82400000000E-01  1.65700000000E-01

 111 111   1    1 H    -4.21050000000E-01  1.24600000000E-01 -3.45800000000E-01

 112 112   1    6 C    -3.86080000000E-01  2.46100000000E-01 -6.75000000000E-02

 113 113   1    1 H    -3.66150000000E-01  3.67200000000E-01  2.34200000000E-01

 114 114   1    8 O    -2.25305000000E-01 -2.22343000000E-01 -2.22997000000E-01

 115 115   1    6 C    -1.83875000000E-01  2.34300000000E-01  1.96100000000E-01

 116 116   1    1 H    -1.48100000000E-01  1.25800000000E-01  4.78900000000E-01

 117 117   1    1 H    -2.06550000000E-01  3.48400000000E-01 -1.09100000000E-01

 118 118   1    6 C    -2.95105000000E-01 -1.93900000000E-01  8.65000000000E-02

 119 119   1    6 C    -3.39580000000E-01  2.48300000000E-01 -1.30600000000E-01

 120 120   1    1 H    -2.45500000000E-01 -2.62843000000E-01 -3.31497000000E-01

 121 121   1    8 O    -2.25305000000E-01  2.10500000000E-01  2.64500000000E-01

 122 122   1    1 H    -2.85750000000E-01 -3.24500000000E-01  8.35000000000E-02

 123 123   1    1 H    -2.98200000000E-01 -1.41600000000E-01 -6.06000000000E-02

 124 124   1    1 H    -2.72400000000E-01 -1.23100000000E-01  1.84100000000E-01

 125 125   1    8 O    -3.38825000000E-01  1.82400000000E-01 -3.34300000000E-01

 126 126   1    8 O    -3.05620000000E-01  3.08200000000E-01 -1.02000000000E-02

 127 127   1    1 H    -2.45500000000E-01  2.51000000000E-01  1.56000000000E-01

 128 128   1    6 C    -2.95105000000E-01  1.93900000000E-01 -4.13500000000E-01

 129 129   1    1 H    -2.85750000000E-01  3.24500000000E-01 -4.16500000000E-01

 130 130   1    1 H    -2.72400000000E-01  1.23100000000E-01 -3.15900000000E-01

 131 131   1    1 H    -2.98978000000E-01  1.32106000000E-01  4.44830000000E-01

 132 132   1    1 H    -1.60340000000E-02  2.41801000000E-01  2.88309000000E-01

 NUMBER OF SYMMETRY OPERATORS         :    1
 *******************************************************************************
 * GEOMETRY EDITING - INPUT COORDINATES ARE GIVEN IN ANGSTROM         
 *******************************************************************************

 GCALCO - MAX INDICES DIRECT LATTICE VECTOR     5    23    26
 NO.OF VECTORS CREATED 6999 STARS 1833 RMAX   240.82090 BOHR

 GEOMETRY FOR WAVE FUNCTION - DIMENSIONALITY OF THE SYSTEM    3
 (NON PERIODIC DIRECTION: LATTICE PARAMETER FORMALLY SET TO 500)
 *******************************************************************************
 LATTICE PARAMETERS (ANGSTROMS AND DEGREES) - BOHR = 0.5291772083 ANGSTROM
 PRIMITIVE CELL - CENTRING CODE 1/0 VOLUME=  1246.459107 - DENSITY  1.445 g/cm^3
         A              B              C           ALPHA      BETA       GAMMA 
    29.47800000     7.02710000     6.09590000    90.000000  99.209000  90.000000
 *******************************************************************************
 ATOMS IN THE ASYMMETRIC UNIT  132 - ATOMS IN THE UNIT CELL:  132
     ATOM                 X/A                 Y/B                 Z/C    
 *******************************************************************************
      1 T   6 C     3.548700000000E-01 -1.798000000000E-01 -1.574000000000E-01
      2 T   1 H     3.519000000000E-01 -1.258000000000E-01 -2.110000000000E-02
      3 T   6 C     3.979850000000E-01 -2.061000000000E-01 -2.152000000000E-01
      4 T   6 C     3.626450000000E-01  3.316000000000E-01 -7.200000000000E-02
      5 T   6 C     3.626450000000E-01 -3.316000000000E-01  4.280000000000E-01
      6 T   1 H     3.651500000000E-01  3.798000000000E-01 -2.117000000000E-01
      7 T   1 H     3.651500000000E-01 -3.798000000000E-01  2.883000000000E-01
      8 T   6 C     3.161250000000E-01 -2.343000000000E-01 -3.039000000000E-01
      9 T   6 C     3.196450000000E-01  3.114000000000E-01 -1.250000000000E-02
     10 T   6 C     3.196450000000E-01 -3.114000000000E-01  4.875000000000E-01
     11 T   1 H     2.934500000000E-01  3.484000000000E-01 -1.091000000000E-01
     12 T   1 H     2.934500000000E-01 -3.484000000000E-01  3.909000000000E-01
     13 T   6 C     4.027150000000E-01 -2.811000000000E-01 -4.265000000000E-01
     14 T   6 C     4.468200000000E-01 -2.988000000000E-01 -4.971000000000E-01
     15 T   1 H     4.482500000000E-01  3.367000000000E-01 -1.420000000000E-01
     16 T   1 H     4.482500000000E-01 -3.367000000000E-01  3.580000000000E-01
     17 T   6 C     6.550500000000E-02 -3.392430000000E-01 -2.848970000000E-01
     18 T   1 H     6.230000000000E-02 -3.879430000000E-01 -1.463970000000E-01
     19 T   6 C     2.699000000000E-02 -2.728430000000E-01 -4.275970000000E-01
     20 T   6 C     3.147400000000E-02  2.017880000000E-01 -1.555410000000E-01
     21 T   6 C     3.237000000000E-02 -1.948430000000E-01  3.661030000000E-01
     22 T   1 H     5.563000000000E-03  1.681460000000E-01 -2.559060000000E-01
     23 T   1 H     7.000000000000E-03 -1.478430000000E-01  2.713030000000E-01
     24 T   6 C     7.454100000000E-02  1.936320000000E-01 -2.187500000000E-01
     25 T   6 C     7.551500000000E-02 -1.880430000000E-01  3.036030000000E-01
     26 T   1 H     7.738400000000E-02  1.545210000000E-01 -3.616930000000E-01
     27 T   1 H     7.895000000000E-02 -1.364430000000E-01  1.667030000000E-01
     28 T   6 C     1.137490000000E-01  2.435140000000E-01 -6.907900000000E-02
     29 T   6 C     1.139200000000E-01 -2.579430000000E-01  4.450030000000E-01
     30 T   6 C     1.084150000000E-01 -3.329430000000E-01 -3.485970000000E-01
     31 T   1 H     1.338500000000E-01 -3.790430000000E-01 -2.532970000000E-01
     32 T   6 C     1.602940000000E-01  2.437890000000E-01 -1.316950000000E-01
     33 T   6 C     1.604200000000E-01 -2.601430000000E-01  3.819030000000E-01
     34 T   6 C     2.042340000000E-01  2.085780000000E-01 -4.202630000000E-01
     35 T   6 C     2.048950000000E-01 -2.057430000000E-01  9.900300000000E-02
     36 T   1 H     2.005530000000E-01  1.708060000000E-01  4.265950000000E-01
     37 T   1 H     2.258450000000E-01  1.254740000000E-01 -3.328790000000E-01
     38 T   1 H     2.276000000000E-01 -1.349430000000E-01  1.966030000000E-01
     39 T   1 H     2.153950000000E-01  3.369310000000E-01 -4.057990000000E-01
     40 T   1 H     2.142500000000E-01 -3.363430000000E-01  9.600300000000E-02
     41 T   7 N     4.844000000000E-01 -2.632000000000E-01 -3.636000000000E-01
     42 T   8 O     2.746950000000E-01 -2.105000000000E-01 -2.355000000000E-01
     43 T   8 O     4.353900000000E-01 -1.609000000000E-01 -6.600000000000E-02
     44 T   8 O     1.949410000000E-01  2.864310000000E-01 -4.207000000000E-03
     45 T   8 O     1.943800000000E-01 -3.200430000000E-01 -4.976970000000E-01
     46 T   8 O     1.603230000000E-01  1.971180000000E-01 -3.429100000000E-01
     47 T   8 O     1.611750000000E-01 -1.942430000000E-01  1.782030000000E-01
     48 T   1 H     4.630000000000E-01 -1.880000000000E-01 -1.400000000000E-01
     49 T   1 H     2.545000000000E-01 -2.510000000000E-01 -3.440000000000E-01
     50 T   6 C     4.027150000000E-01  2.811000000000E-01  7.350000000000E-02
     51 T   6 C     3.161250000000E-01  2.343000000000E-01  1.961000000000E-01
     52 T   7 N    -1.560000000000E-02 -2.750430000000E-01 -3.510970000000E-01
     53 T   6 C     2.699000000000E-02  2.610000000000E-01  5.990000000000E-02
     54 T   6 C     1.090990000000E-01  2.997610000000E-01  1.460600000000E-01
     55 T   1 H     2.018000000000E-01 -1.534430000000E-01 -4.809700000000E-02
     56 T   6 C    -4.730100000000E-01 -2.610000000000E-01 -4.401000000000E-01
     57 T   6 C     3.979850000000E-01  2.061000000000E-01  2.848000000000E-01
     58 T   6 C     4.468200000000E-01  2.988000000000E-01  2.900000000000E-03
     59 T   8 O     2.746950000000E-01  2.105000000000E-01  2.645000000000E-01
     60 T   6 C     3.548700000000E-01  1.798000000000E-01  3.426000000000E-01
     61 T   6 C    -5.318000000000E-02 -3.106430000000E-01 -4.845970000000E-01
     62 T   7 N    -1.560000000000E-02  2.632000000000E-01  1.364000000000E-01
     63 T   6 C     6.625800000000E-02  3.072690000000E-01  2.103930000000E-01
     64 T   1 H     1.350610000000E-01  3.324510000000E-01  2.468010000000E-01
     65 T   6 C    -4.344950000000E-01 -3.274000000000E-01 -2.974000000000E-01
     66 T   6 C    -4.676300000000E-01 -1.830000000000E-01  3.536000000000E-01
     67 T   8 O     4.353900000000E-01  1.609000000000E-01  4.340000000000E-01
     68 T   7 N     4.844000000000E-01  2.632000000000E-01  1.364000000000E-01
     69 T   1 H     2.545000000000E-01  2.510000000000E-01  1.560000000000E-01
     70 T   1 H     3.519000000000E-01  1.258000000000E-01  4.789000000000E-01
     71 T   6 C    -9.728500000000E-02 -2.929430000000E-01 -4.139970000000E-01
     72 T   1 H    -5.175000000000E-02 -3.485430000000E-01  3.705030000000E-01
     73 T   6 C    -5.318000000000E-02  2.988000000000E-01  2.900000000000E-03
     74 T   1 H     6.360300000000E-02  3.433150000000E-01  3.545370000000E-01
     75 T   1 H    -4.377000000000E-01 -3.761000000000E-01 -1.589000000000E-01
     76 T   6 C    -3.915850000000E-01 -3.211000000000E-01 -3.611000000000E-01
     77 T   1 H    -4.930000000000E-01 -1.360000000000E-01  2.588000000000E-01
     78 T   6 C    -4.244850000000E-01 -1.762000000000E-01  2.911000000000E-01
     79 T   1 H     4.630000000000E-01  1.880000000000E-01  3.600000000000E-01
     80 T   6 C    -4.730100000000E-01  2.610000000000E-01  5.990000000000E-02
     81 T   6 C    -1.373550000000E-01 -3.434430000000E-01  4.405030000000E-01
     82 T   6 C    -1.020150000000E-01 -2.179430000000E-01 -2.026970000000E-01
     83 T   6 C    -9.728500000000E-02  2.811000000000E-01  7.350000000000E-02
     84 T   1 H    -5.175000000000E-02  3.367000000000E-01 -1.420000000000E-01
     85 T   1 H    -3.661500000000E-01 -3.672000000000E-01 -2.658000000000E-01
     86 T   6 C    -3.860800000000E-01 -2.461000000000E-01  4.325000000000E-01
     87 T   1 H    -4.210500000000E-01 -1.246000000000E-01  1.542000000000E-01
     88 T   6 C    -4.676300000000E-01  1.830000000000E-01 -1.464000000000E-01
     89 T   6 C    -4.344950000000E-01  3.274000000000E-01  2.026000000000E-01
     90 T   6 C    -1.803550000000E-01 -3.232430000000E-01 -4.999970000000E-01
     91 T   1 H    -1.348500000000E-01 -3.916430000000E-01  3.008030000000E-01
     92 T   6 C    -1.451300000000E-01 -1.916430000000E-01 -1.448970000000E-01
     93 T   8 O    -6.461000000000E-02 -1.727430000000E-01 -5.349700000000E-02
     94 T   6 C    -1.020150000000E-01  2.061000000000E-01  2.848000000000E-01
     95 T   6 C    -1.373550000000E-01  3.316000000000E-01 -7.200000000000E-02
     96 T   6 C    -3.395800000000E-01 -2.483000000000E-01  3.694000000000E-01
     97 T   1 H    -4.930000000000E-01  1.360000000000E-01 -2.412000000000E-01
     98 T   6 C    -4.244850000000E-01  1.762000000000E-01 -2.089000000000E-01
     99 T   1 H    -4.377000000000E-01  3.761000000000E-01  3.411000000000E-01
    100 T   6 C    -3.915850000000E-01  3.211000000000E-01  1.389000000000E-01
    101 T   1 H    -2.065500000000E-01 -3.602430000000E-01  4.034030000000E-01
    102 T   6 C    -1.838750000000E-01 -2.461430000000E-01 -2.913970000000E-01
    103 T   1 H    -1.481000000000E-01 -1.376430000000E-01 -8.597000000000E-03
    104 T   1 H    -3.700000000000E-02 -1.998430000000E-01 -1.274970000000E-01
    105 T   6 C    -1.451300000000E-01  1.798000000000E-01  3.426000000000E-01
    106 T   8 O    -6.461000000000E-02  1.609000000000E-01  4.340000000000E-01
    107 T   6 C    -1.803550000000E-01  3.114000000000E-01 -1.250000000000E-02
    108 T   1 H    -1.348500000000E-01  3.798000000000E-01 -2.117000000000E-01
    109 T   8 O    -3.056200000000E-01 -3.082000000000E-01  4.898000000000E-01
    110 T   8 O    -3.388250000000E-01 -1.824000000000E-01  1.657000000000E-01
    111 T   1 H    -4.210500000000E-01  1.246000000000E-01 -3.458000000000E-01
    112 T   6 C    -3.860800000000E-01  2.461000000000E-01 -6.750000000000E-02
    113 T   1 H    -3.661500000000E-01  3.672000000000E-01  2.342000000000E-01
    114 T   8 O    -2.253050000000E-01 -2.223430000000E-01 -2.229970000000E-01
    115 T   6 C    -1.838750000000E-01  2.343000000000E-01  1.961000000000E-01
    116 T   1 H    -1.481000000000E-01  1.258000000000E-01  4.789000000000E-01
    117 T   1 H    -2.065500000000E-01  3.484000000000E-01 -1.091000000000E-01
    118 T   6 C    -2.951050000000E-01 -1.939000000000E-01  8.650000000000E-02
    119 T   6 C    -3.395800000000E-01  2.483000000000E-01 -1.306000000000E-01
    120 T   1 H    -2.455000000000E-01 -2.628430000000E-01 -3.314970000000E-01
    121 T   8 O    -2.253050000000E-01  2.105000000000E-01  2.645000000000E-01
    122 T   1 H    -2.857500000000E-01 -3.245000000000E-01  8.350000000000E-02
    123 T   1 H    -2.982000000000E-01 -1.416000000000E-01 -6.060000000000E-02
    124 T   1 H    -2.724000000000E-01 -1.231000000000E-01  1.841000000000E-01
    125 T   8 O    -3.388250000000E-01  1.824000000000E-01 -3.343000000000E-01
    126 T   8 O    -3.056200000000E-01  3.082000000000E-01 -1.020000000000E-02
    127 T   1 H    -2.455000000000E-01  2.510000000000E-01  1.560000000000E-01
    128 T   6 C    -2.951050000000E-01  1.939000000000E-01 -4.135000000000E-01
    129 T   1 H    -2.857500000000E-01  3.245000000000E-01 -4.165000000000E-01
    130 T   1 H    -2.724000000000E-01  1.231000000000E-01 -3.159000000000E-01
    131 T   1 H    -2.989780000000E-01  1.321060000000E-01  4.448300000000E-01
    132 T   1 H    -1.603400000000E-02  2.418010000000E-01  2.883090000000E-01

 T = ATOM BELONGING TO THE ASYMMETRIC UNIT

 ****    1 SYMMOPS - TRANSLATORS IN FRACTIONAL UNITS
 **** MATRICES AND TRANSLATORS IN THE CRYSTALLOGRAPHIC REFERENCE FRAME
   V INV                    ROTATION MATRICES                   TRANSLATORS
   1   1  1.00 -0.00  0.00  0.00  1.00  0.00  0.00  0.00  1.00  0.00  0.00  0.00

 DIRECT LATTICE VECTORS CARTESIAN COMPONENTS (ANGSTROM)
          X                    Y                    Z
   0.294780000000E+02   0.180500691726E-14   0.000000000000E+00
   0.000000000000E+00   0.702710000000E+01   0.000000000000E+00
  -0.975564944193E+00   0.373266221146E-15   0.601733079111E+01


 CARTESIAN COORDINATES - PRIMITIVE CELL
 *******************************************************************************
 *      ATOM          X(ANGSTROM)         Y(ANGSTROM)         Z(ANGSTROM)
 *******************************************************************************
    1     6 C     1.061441178222E+01 -1.263472580000E+00 -9.471278665210E-01
    2     1 H     1.039389262032E+01 -8.840091800000E-01 -1.269656796925E-01
    3     6 C     1.096617846180E+01 -1.448285310000E+00  4.722401204865E+00
    4     6 C     1.076028998598E+01  2.330186360000E+00 -4.332478169601E-01
    5     6 C     1.027250751389E+01 -2.330186360000E+00  2.575417578596E+00
    6     1 H     1.097041879869E+01  2.668892580000E+00 -1.273868928478E+00
    7     1 H     1.048263632659E+01 -2.668892580000E+00  1.734796467078E+00
    8     6 C     8.639641992347E+00 -1.646449530000E+00  4.188663963693E+00
    9     6 C     9.434689871802E+00  2.188238940000E+00 -7.521663488890E-02
   10     6 C     8.946907399706E+00 -2.188238940000E+00  2.933448760667E+00
   11     1 H     8.756753235411E+00  2.448241640000E+00 -6.564907893103E-01
   12     1 H     8.268970763315E+00 -2.448241640000E+00  2.352174606246E+00
   13     6 C     1.131174627451E+01 -1.975317810000E+00  3.450939208703E+00
   14     6 C     1.268074834957E+01 -2.099697480000E+00  3.026115654850E+00
   15     1 H     1.335204372208E+01  2.366024570000E+00 -8.544609723379E-01
   16     1 H     1.286426124998E+01 -2.366024570000E+00  2.154204423218E+00
   17     6 C     2.208891915906E+00 -2.383894485300E+00 -1.714319490395E+00
   18     1 H     1.979299181135E+00 -2.726114255300E+00 -8.809191758264E-01
   19     6 C     1.212759863442E+00 -1.917295045300E+00 -2.572992594287E+00
   20     6 C     1.079530918985E+00  1.417984454800E+00 -9.359416485803E-01
   21     6 C     5.970456072362E-01 -1.369181245300E+00  2.202962854618E+00
   22     1 H     4.136390366086E-01  1.181578756600E+00 -1.539871053430E+00
   23     1 H    -5.832769605431E-02 -1.038907545300E+00  1.632519895621E+00
   24     6 C     2.410724429542E+00  1.360671427200E+00 -1.316291110556E+00
   25     6 C     1.929846726248E+00 -1.321396965300E+00  1.826879680174E+00
   26     1 H     2.633980563360E+00  1.085834519100E+00 -2.176426425830E+00
   27     1 H     2.164658497108E+00 -9.587986053000E-01  1.003107094871E+00
   28     6 C     3.420484072780E+00  1.711197229400E+00 -4.156711937192E-01
   29     6 C     2.924004433139E+00 -1.812591255300E+00  2.677730254037E+00
   30     6 C     3.535936382851E+00 -2.339623755300E+00 -2.097623461789E+00
   31     1 H     4.192737973669E+00 -2.663573065300E+00 -1.524171837396E+00
   32     6 C     4.853623557325E+00  1.713129681900E+00 -7.924523785355E-01
   33     6 C     4.356289581118E+00 -1.828050875300E+00  2.298036681118E+00
   34     6 C     5.454838757949E+00  1.465698463800E+00  3.488469300847E+00
   35     6 C     5.943310953830E+00 -1.445776635300E+00  5.957338003124E-01
   36     1 H     5.495730206632E+00  1.200270842600E+00  2.566963228834E+00
   37     1 H     6.006639048865E+00  8.817183454000E-01  4.014287734697E+00
   38     1 H     6.517393805277E+00 -9.482579553000E-01  1.183025285525E+00
   39     1 H     5.769732144596E+00  2.367647830100E+00  3.575503973409E+00
   40     1 H     6.222004338663E+00 -2.363515895300E+00  5.776818079391E-01
   41     7 N     1.365829366952E+01 -1.849532720000E+00  3.829429315464E+00
   42     8 O     8.327204754357E+00 -1.479204550000E+00 -1.417081401307E+00
   43     8 O     1.289881370632E+01 -1.130660390000E+00 -3.971438322134E-01
   44     8 O     5.750574999720E+00  2.012779280100E+00 -2.531491063821E-02
   45     8 O     5.239904441837E+00 -2.248974165300E+00  3.022523308368E+00
   46     8 O     5.060532369013E+00  1.385167897800E+00 -2.063402901580E+00
   47     8 O     4.577268050250E+00 -1.364964985300E+00  1.072306398968E+00
   48     1 H     1.378489309219E+01 -1.321094800000E+00 -8.424263107557E-01
   49     1 H     6.862180396610E+00 -1.763802100000E+00  3.947368998969E+00
   50     6 C     1.179952874660E+01  1.975317810000E+00  4.422738131467E-01
   51     6 C     9.127424464444E+00  1.646449530000E+00  1.179998568137E+00
   52     7 N    -1.173388747888E-01 -1.932754665300E+00 -2.112666788767E+00
   53     6 C     7.371748798429E-01  1.834073100000E+00  3.604381143876E-01
   54     6 C     3.073529306251E+00  2.106450523100E+00  8.788913353498E-01
   55     1 H     5.995582147121E+00 -1.078259305300E+00 -2.894155590601E-01
   56     6 C    -1.351404264806E+01 -1.834073100000E+00 -2.648227281168E+00
   57     6 C     1.145396093389E+01  1.448285310000E+00  1.713735809309E+00
   58     6 C     1.316853082166E+01  2.099697480000E+00  1.745025929422E-02
   59     8 O     7.839422282261E+00  1.479204550000E+00  1.591583994249E+00
   60     6 C     1.012662931012E+01  1.263472580000E+00  2.061537529035E+00
   61     6 C    -1.094884194739E+00 -2.182919425300E+00 -2.915980449380E+00
   62     7 N    -5.929238583879E-01  1.849532720000E+00  8.207639199077E-01
   63     6 C     1.747901288696E+00  2.159209989900E+00  1.266004277134E+00
   64     1 H     3.740557754208E+00  2.336166422100E+00  1.485083256577E+00
   65     6 C    -1.251791059560E+01 -2.300672540000E+00 -1.789554177277E+00
   66     6 C    -1.315419196007E+01 -1.285959300000E+00 -3.889602623375E+00
   67     8 O     1.241103123422E+01  1.130660390000E+00  2.611521563343E+00
   68     7 N     1.414607614161E+01  1.849532720000E+00  8.207639199077E-01
   69     1 H     7.349962868706E+00  1.763802100000E+00  9.387036034134E-01
   70     1 H     9.906110148226E+00  8.840091800000E-01  2.881699715863E+00
   71     6 C    -2.463886269799E+00 -2.058539755300E+00 -2.491156895528E+00
   72     1 H    -1.886936238518E+00 -2.449246515300E+00  2.229439110099E+00
   73     6 C    -1.570469178338E+00  2.099697480000E+00  1.745025929422E-02
   74     1 H     1.529015365381E+00  2.412508836500E+00  2.133366406688E+00
   75     1 H    -1.274750333037E+01 -2.642892310000E+00 -9.561538627077E-01
   76     6 C    -1.119086612865E+01 -2.256401810000E+00 -2.172858148670E+00
   77     1 H    -1.380956526336E+01 -9.556856000000E-01 -4.460045582372E+00
   78     6 C    -1.182139084106E+01 -1.238175020000E+00 -4.265685797819E+00
   79     1 H     1.329711062009E+01  1.321094800000E+00  2.166239084800E+00
   80     6 C    -1.400182512016E+01  1.834073100000E+00  3.604381143876E-01
   81     6 C    -3.503125030419E+00 -2.413408305300E+00 -3.366678525635E+00
   82     6 C    -2.809454082507E+00 -1.531507255300E+00 -1.219694899366E+00
   83     6 C    -2.939471253398E+00  1.975317810000E+00  4.422738131467E-01
   84     1 H    -1.386956277925E+00  2.366024570000E+00 -8.544609723379E-01
   85     1 H    -1.053406453783E+01 -2.580351120000E+00 -1.599406524278E+00
   86     6 C    -1.082723313417E+01 -1.729369310000E+00 -3.414835223956E+00
   87     1 H    -1.256214401439E+01 -8.755766600000E-01  9.278724079894E-01
   88     6 C    -1.364197443217E+01  1.285959300000E+00 -8.809372278188E-01
   89     6 C    -1.203012812350E+01  2.300672540000E+00 -4.798219572833E+00
   90     6 C    -4.828725144598E+00 -2.271460885300E+00 -3.008647343564E+00
   91     1 H    -4.268561161908E+00 -2.752114525300E+00  1.810031153959E+00
   92     6 C    -4.136785706281E+00 -1.346694525300E+00 -8.718931796397E-01
   93     8 O    -1.852383782181E+00 -1.213882335300E+00 -3.219091453321E-01
   94     6 C    -3.285039066106E+00  1.448285310000E+00  1.713735809309E+00
   95     6 C    -3.978710014018E+00  2.330186360000E+00 -4.332478169601E-01
   96     6 C    -9.394947986192E+00 -1.744828930000E+00 -3.794528796875E+00
   97     1 H    -1.429734773546E+01  9.556856000000E-01 -1.451380186816E+00
   98     6 C    -1.230917331316E+01  1.238175020000E+00 -1.257020402263E+00
   99     1 H    -1.225972085827E+01  2.642892310000E+00 -3.964819258264E+00
  100     6 C    -1.167864860075E+01  2.256401810000E+00  8.358072468854E-01
  101     1 H    -5.506661780989E+00 -2.531463585300E+00 -3.589921497985E+00
  102     6 C    -5.135990551957E+00 -1.729671475300E+00 -1.753432140538E+00
  103     1 H    -4.357304868175E+00 -9.672311253000E-01 -5.173099281119E-02
  104     1 H    -9.663043963103E-01 -1.404316745300E+00 -7.671916238744E-01
  105     6 C    -4.612370689880E+00  1.263472580000E+00  2.061537529035E+00
  106     8 O    -2.327968765780E+00  1.130660390000E+00  2.611521563343E+00
  107     6 C    -5.304310128198E+00  2.188238940000E+00 -7.521663488890E-02
  108     1 H    -3.768581201314E+00  2.668892580000E+00 -1.273868928478E+00
  109     8 O    -8.511333125473E+00 -2.165752220000E+00 -3.070042169625E+00
  110     8 O    -1.014953446125E+01 -1.281743040000E+00  9.970717120872E-01
  111     1 H    -1.207436154230E+01  8.755766600000E-01 -2.080792987566E+00
  112     6 C    -1.131501560627E+01  1.729369310000E+00 -4.061698284000E-01
  113     1 H    -1.004628206574E+01  2.580351120000E+00 -4.608071919833E+00
  114     8 O    -6.423992734140E+00 -1.562426495300E+00 -1.341846714426E+00
  115     6 C    -5.611575535556E+00  1.646449530000E+00  1.179998568137E+00
  116     1 H    -3.857324907581E+00  8.840091800000E-01 -3.135631075248E+00
  117     1 H    -5.982246764589E+00  2.448241640000E+00 -6.564907893103E-01
  118     6 C    -8.783491557673E+00 -1.362554690000E+00  5.204991134312E-01
  119     6 C    -9.882730458288E+00  1.744828930000E+00 -7.858634013192E-01
  120     1 H    -6.913452147695E+00 -1.847024045300E+00 -1.994727105261E+00
  121     8 O    -6.899577717739E+00  1.479204550000E+00  1.591583994249E+00
  122     1 H    -8.504798172840E+00 -2.280293950000E+00  5.024471210578E-01
  123     1 H    -8.731220364382E+00 -9.950373600000E-01 -3.646502459414E-01
  124     1 H    -8.209408706226E+00 -8.650360100000E-01  1.107790598644E+00
  125     8 O    -9.661751989156E+00  1.281743040000E+00 -2.011593683469E+00
  126     8 O    -8.999115597569E+00  2.165752220000E+00 -6.137677406934E-02
  127     1 H    -7.389037131294E+00  1.763802100000E+00  9.387036034134E-01
  128     6 C    -8.295709085576E+00  1.362554690000E+00 -2.488166282125E+00
  129     1 H    -8.017015700744E+00  2.280293950000E+00 -2.506218274498E+00
  130     1 H    -7.721626234130E+00  8.650360100000E-01 -1.900874796912E+00
  131     1 H    -8.271669093933E+00  9.283220726000E-01 -3.340641535302E+00
  132     1 H    -7.539144054953E-01  1.699159807100E+00  1.734850623055E+00

 *******************************************************************************
 LOCAL ATOMIC FUNCTIONS BASIS SET
 *******************************************************************************
   ATOM   X(AU)   Y(AU)   Z(AU)  N. TYPE  EXPONENT  S COEF   P COEF   D/F/G COEF
 *******************************************************************************
   1 C   20.058  -2.388  -1.790
                                  1 S  
                                         7.162E+01 1.543E-01 0.000E+00 0.000E+00
                                         1.305E+01 5.353E-01 0.000E+00 0.000E+00
                                         3.531E+00 4.446E-01 0.000E+00 0.000E+00
                           2-     5 SP 
                                         2.941E+00-9.997E-02 1.559E-01 0.000E+00
                                         6.835E-01 3.995E-01 6.077E-01 0.000E+00
                                         2.223E-01 7.001E-01 3.920E-01 0.000E+00
   2 H   19.642  -1.671  -0.240
                                  6 S  
                                         3.425E+00 1.543E-01 0.000E+00 0.000E+00
                                         6.239E-01 5.353E-01 0.000E+00 0.000E+00
                                         1.689E-01 4.446E-01 0.000E+00 0.000E+00
   3 C   20.723  -2.737   8.924
   4 C   20.334   4.403  -0.819
   5 C   19.412  -4.403   4.867
   6 H   20.731   5.043  -2.407
   7 H   19.809  -5.043   3.278
   8 C   16.327  -3.111   7.915
   9 C   17.829   4.135  -0.142
  10 C   16.907  -4.135   5.543
  11 H   16.548   4.627  -1.241
  12 H   15.626  -4.627   4.445
  13 C   21.376  -3.733   6.521
  14 C   23.963  -3.968   5.719
  15 H   25.232   4.471  -1.615
  16 H   24.310  -4.471   4.071
  17 C    4.174  -4.505  -3.240
  18 H    3.740  -5.152  -1.665
  19 C    2.292  -3.623  -4.862
  20 C    2.040   2.680  -1.769
  21 C    1.128  -2.587   4.163
  22 H    0.782   2.233  -2.910
  23 H   -0.110  -1.963   3.085
  24 C    4.556   2.571  -2.487
  25 C    3.647  -2.497   3.452
  26 H    4.978   2.052  -4.113
  27 H    4.091  -1.812   1.896
  28 C    6.464   3.234  -0.786
  29 C    5.526  -3.425   5.060
  30 C    6.682  -4.421  -3.964
  31 H    7.923  -5.033  -2.880
  32 C    9.172   3.237  -1.498
  33 C    8.232  -3.455   4.343
  34 C   10.308   2.770   6.592
  35 C   11.231  -2.732   1.126
  36 H   10.385   2.268   4.851
  37 H   11.351   1.666   7.586
  38 H   12.316  -1.792   2.236
  39 H   10.903   4.474   6.757
  40 H   11.758  -4.466   1.092
  41 N   25.810  -3.495   7.237
                                129 S  
                                         9.911E+01 1.543E-01 0.000E+00 0.000E+00
                                         1.805E+01 5.353E-01 0.000E+00 0.000E+00
                                         4.886E+00 4.446E-01 0.000E+00 0.000E+00
                         130-   133 SP 
                                         3.780E+00-9.997E-02 1.559E-01 0.000E+00
                                         8.785E-01 3.995E-01 6.077E-01 0.000E+00
                                         2.857E-01 7.001E-01 3.920E-01 0.000E+00
  42 O   15.736  -2.795  -2.678
                                134 S  
                                         1.307E+02 1.543E-01 0.000E+00 0.000E+00
                                         2.381E+01 5.353E-01 0.000E+00 0.000E+00
                                         6.444E+00 4.446E-01 0.000E+00 0.000E+00
                         135-   138 SP 
                                         5.033E+00-9.997E-02 1.559E-01 0.000E+00
                                         1.170E+00 3.995E-01 6.077E-01 0.000E+00
                                         3.804E-01 7.001E-01 3.920E-01 0.000E+00
  43 O   24.375  -2.137  -0.750
  44 O   10.867   3.804  -0.048
  45 O    9.902  -4.250   5.712
  46 O    9.563   2.618  -3.899
  47 O    8.650  -2.579   2.026
  48 H   26.050  -2.497  -1.592
  49 H   12.968  -3.333   7.459
  50 C   22.298   3.733   0.836
  51 C   17.248   3.111   2.230
  52 N   -0.222  -3.652  -3.992
  53 C    1.393   3.466   0.681
  54 C    5.808   3.981   1.661
  55 H   11.330  -2.038  -0.547
  56 C  -25.538  -3.466  -5.004
  57 C   21.645   2.737   3.238
  58 C   24.885   3.968   0.033
  59 O   14.814   2.795   3.008
  60 C   19.137   2.388   3.896
  61 C   -2.069  -4.125  -5.510
  62 N   -1.120   3.495   1.551
  63 C    3.303   4.080   2.392
  64 H    7.069   4.415   2.806
  65 C  -23.655  -4.348  -3.382
  66 C  -24.858  -2.430  -7.350
  67 O   23.453   2.137   4.935
  68 N   26.732   3.495   1.551
  69 H   13.889   3.333   1.774
  70 H   18.720   1.671   5.446
  71 C   -4.656  -3.890  -4.708
  72 H   -3.566  -4.628   4.213
  73 C   -2.968   3.968   0.033
  74 H    2.889   4.559   4.031
  75 H  -24.089  -4.994  -1.807
  76 C  -21.148  -4.264  -4.106
  77 H  -26.096  -1.806  -8.428
  78 C  -22.339  -2.340  -8.061
  79 H   25.128   2.497   4.094
  80 C  -26.460   3.466   0.681
  81 C   -6.620  -4.561  -6.362
  82 C   -5.309  -2.894  -2.305
  83 C   -5.555   3.733   0.836
  84 H   -2.621   4.471  -1.615
  85 H  -19.906  -4.876  -3.022
  86 C  -20.461  -3.268  -6.453
  87 H  -23.739  -1.655   1.753
  88 C  -25.780   2.430  -1.665
  89 C  -22.734   4.348  -9.067
  90 C   -9.125  -4.292  -5.686
  91 H   -8.066  -5.201   3.420
  92 C   -7.817  -2.545  -1.648
  93 O   -3.500  -2.294  -0.608
  94 C   -6.208   2.737   3.238
  95 C   -7.519   4.403  -0.819
  96 C  -17.754  -3.297  -7.171
  97 H  -27.018   1.806  -2.743
  98 C  -23.261   2.340  -2.375
  99 H  -23.168   4.994  -7.492
 100 C  -22.069   4.264   1.579
 101 H  -10.406  -4.784  -6.784
 102 C   -9.706  -3.269  -3.314
 103 H   -8.234  -1.828  -0.098
 104 H   -1.826  -2.654  -1.450
 105 C   -8.716   2.388   3.896
 106 O   -4.399   2.137   4.935
 107 C  -10.024   4.135  -0.142
 108 H   -7.122   5.043  -2.407
 109 O  -16.084  -4.093  -5.802
 110 O  -19.180  -2.422   1.884
 111 H  -22.817   1.655  -3.932
 112 C  -21.382   3.268  -0.768
 113 H  -18.985   4.876  -8.708
 114 O  -12.140  -2.953  -2.536
 115 C  -10.604   3.111   2.230
 116 H   -7.289   1.671  -5.925
 117 H  -11.305   4.627  -1.241
 118 C  -16.598  -2.575   0.984
 119 C  -18.676   3.297  -1.485
 120 H  -13.065  -3.490  -3.769
 121 O  -13.038   2.795   3.008
 122 H  -16.072  -4.309   0.949
 123 H  -16.500  -1.880  -0.689
 124 H  -15.514  -1.635   2.093
 125 O  -18.258   2.422  -3.801
 126 O  -17.006   4.093  -0.116
 127 H  -13.963   3.333   1.774
 128 C  -15.677   2.575  -4.702
 129 H  -15.150   4.309  -4.736
 130 H  -14.592   1.635  -3.592
 131 H  -15.631   1.754  -6.313
 132 H   -1.425   3.211   3.278
 INFORMATION **** SET_MPP **** PCRYSTAL CALCULATION
 INFORMATION **** READM2 **** NEW DEFAULT: FOCK/KS MATRIX MIXING SET TO 30 %
 INFORMATION **** READM2 **** NEW DEFAULT: FULL DIRECT SCF MODE
 INFORMATION **** READM2 **** NEW DEFAULT: COULOMB BIPOLAR BUFFER SET TO 32 Mb
 INFORMATION **** READM2 **** NEW DEFAULT: EXCHANGE BIPOLAR BUFFER SET TO 32 Mb

 *******************************************************************************
 NEW DEFAULT: DFT INTEGRATION GRID INCREASED TO XLGRID
 NEW DEFAULT: DIIS ACCELERATOR ACTIVE
 USE KEYWORD NODIIS TO TURN IT OFF
 *******************************************************************************

 INFORMATION **** TOLINTEG **** COULOMB AND EXCHANGE SERIES TOLERANCES MODIFIED
 *******************************************************************************
 N. OF ATOMS PER CELL       132  COULOMB OVERLAP TOL         (T1) 10**   -7
 NUMBER OF SHELLS           212  COULOMB PENETRATION TOL     (T2) 10**   -7
 NUMBER OF AO               452  EXCHANGE OVERLAP TOL        (T3) 10**   20
 N. OF ELECTRONS PER CELL   568  EXCHANGE PSEUDO OVP (F(G))  (T4) 10**   20
 CORE ELECTRONS PER CELL    160  EXCHANGE PSEUDO OVP (P(G))  (T5) 10**   20
 N. OF SYMMETRY OPERATORS     1  POLE ORDER IN MONO ZONE                  4
 *******************************************************************************
 TYPE OF CALCULATION :  RESTRICTED CLOSED SHELL
 KOHN-SHAM HAMILTONIAN

 (EXCHANGE)[CORRELATION] FUNCTIONAL:(DIRAC-SLATER LDA)[VOSKO-WILK-NUSAIR]


 CAPPA:IS1  4;IS2  4;IS3  4; K PTS MONK NET  36; SYMMOPS:K SPACE   2;G SPACE   1

 *******************************************************************************
 MAX NUMBER OF SCF CYCLES      50  CONVERGENCE ON DELTAP        10**-16
 WEIGHT OF F(I) IN F(I+1)      30% CONVERGENCE ON ENERGY        10**- 6
 SHRINK. FACT.(MONKH.)    4  4  4  NUMBER OF K POINTS IN THE IBZ     36
 SHRINKING FACTOR(GILAT NET)    4  NUMBER OF K POINTS(GILAT NET)     36
 *******************************************************************************
 *** K POINTS COORDINATES (OBLIQUE COORDINATES IN UNITS OF IS =  4)
   1-R(  0  0  0)   2-C(  1  0  0)   3-R(  2  0  0)   4-C(  0  1  0)
   5-C(  1  1  0)   6-C(  2  1  0)   7-C(  3  1  0)   8-R(  0  2  0)
   9-C(  1  2  0)  10-R(  2  2  0)  11-C(  0  0  1)  12-C(  1  0  1)
  13-C(  2  0  1)  14-C(  3  0  1)  15-C(  0  1  1)  16-C(  1  1  1)
  17-C(  2  1  1)  18-C(  3  1  1)  19-C(  0  2  1)  20-C(  1  2  1)
  21-C(  2  2  1)  22-C(  3  2  1)  23-C(  0  3  1)  24-C(  1  3  1)
  25-C(  2  3  1)  26-C(  3  3  1)  27-R(  0  0  2)  28-C(  1  0  2)
  29-R(  2  0  2)  30-C(  0  1  2)  31-C(  1  1  2)  32-C(  2  1  2)
  33-C(  3  1  2)  34-R(  0  2  2)  35-C(  1  2  2)  36-R(  2  2  2)

 DIRECT LATTICE VECTORS COMPON. (A.U.)     RECIP. LATTICE VECTORS COMPON. (A.U.) 
        X            Y            Z              X            Y            Z
   55.7053470    0.0000000    0.0000000      0.1127932    0.0000000    0.0182867
    0.0000000   13.2792945    0.0000000     -0.0000000    0.4731566   -0.0000000
   -1.8435506    0.0000000   11.3711073      0.0000000    0.0000000    0.5525570

 DISK SPACE FOR EIGENVECTORS (FTN 10)    13075456 REALS

 SYMMETRY ADAPTION OF THE BLOCH FUNCTIONS DISABLED
 TTTTTTTTTTTTTTTTTTTTTTTTTTTTTT gordsh1     TELAPSE        2.14 TCPU        0.78

 MATRIX SIZE: P(G)  132380, F(G)   66760, P(G) IRR   67960, F(G) IRR   67960
 MAX G-VECTOR INDEX FOR 1- AND 2-ELECTRON INTEGRALS  99

 TTTTTTTTTTTTTTTTTTTTTTTTTTTTTT INPUT       TELAPSE        2.14 TCPU        0.78

 NEIGHBORS OF THE NON-EQUIVALENT ATOMS

 N = NUMBER OF NEIGHBORS AT DISTANCE R
    ATOM  N     R/ANG      R/AU   NEIGHBORS (ATOM LABELS AND CELL INDICES)
   1 C    1     0.9302     1.7578    2 H    0 0 0
   1 C    1     1.3845     2.6164    3 C    0 0-1
   1 C    1     1.3864     2.6200    8 C    0 0-1
   1 C    1     2.3449     4.4313   42 O    0 0 0
   1 C    1     2.3534     4.4473   43 O    0 0 0
   1 C    1     2.4289     4.5900   10 C    0 0-1

   2 H    1     0.9302     1.7578    1 C    0 0 0
   2 H    1     2.0195     3.8163    3 C    0 0-1
   2 H    1     2.0208     3.8187    8 C    0 0-1
   2 H    1     2.5080     4.7394   42 O    0 0 0
   2 H    1     2.5315     4.7838   43 O    0 0 0
   2 H    1     2.5807     4.8768    7 H    0 0 0

   3 C    1     1.3501     2.5514   43 O    0 0 1
   3 C    1     1.3845     2.6164    1 C    0 0 1
   3 C    1     1.4191     2.6817   13 C    0 0 0
   3 C    1     1.9021     3.5945   48 H    0 0 1
   3 C    1     2.0195     3.8163    2 H    0 0 1
   3 C    1     2.3952     4.5262    8 C    0 0 0

   4 C    1     0.9303     1.7581    6 H    0 0 0
   4 C    1     1.3804     2.6086    9 C    0 0 0
   4 C    1     1.4045     2.6540   50 C    0 0 0
   4 C    1     2.0194     3.8161   11 H    0 0 0
   4 C    1     2.3951     4.5260   51 C    0 0 0
   4 C    1     2.4225     4.5778   57 C    0 0 0

   5 C    1     0.9303     1.7581    7 H    0 0 0
   5 C    1     1.3804     2.6086   10 C    0 0 0
   5 C    1     1.4045     2.6540   13 C    0 0 0
   5 C    1     2.0194     3.8161   12 H    0 0 0
   5 C    1     2.3951     4.5260    8 C    0 0 0
   5 C    1     2.4225     4.5778    3 C    0 0 0

   6 H    1     0.9303     1.7581    4 C    0 0 0
   6 H    1     2.0066     3.7918    9 C    0 0 0
   6 H    1     2.0282     3.8328   50 C    0 0 0
   6 H    1     2.3087     4.3628   11 H    0 0 0
   6 H    1     2.4372     4.6056   15 H    0 0 0
   6 H    1     2.5807     4.8768   70 H    0 0-1

   7 H    1     0.9303     1.7581    5 C    0 0 0
   7 H    1     2.0066     3.7918   10 C    0 0 0
   7 H    1     2.0282     3.8328   13 C    0 0 0
   7 H    1     2.3087     4.3628   12 H    0 0 0
   7 H    1     2.4372     4.6056   16 H    0 0 0
   7 H    1     2.5807     4.8768    2 H    0 0 0

   8 C    1     1.3625     2.5747   42 O    0 0 1
   8 C    1     1.3864     2.6200    1 C    0 0 1
   8 C    1     1.4013     2.6480   10 C    0 0 0
   8 C    1     1.7976     3.3970   49 H    0 0 0
   8 C    1     2.0208     3.8187    2 H    0 0 1
   8 C    1     2.0379     3.8510   12 H    0 0 0

   9 C    1     0.9301     1.7576   11 H    0 0 0
   9 C    1     1.3804     2.6086    4 C    0 0 0
   9 C    1     1.4013     2.6480   51 C    0 0 0
   9 C    1     2.0066     3.7918    6 H    0 0 0
   9 C    1     2.3567     4.4536   69 H    0 0 0
   9 C    1     2.4137     4.5612   59 O    0 0 0

  10 C    1     0.9301     1.7576   12 H    0 0 0
  10 C    1     1.3804     2.6086    5 C    0 0 0
  10 C    1     1.4013     2.6480    8 C    0 0 0
  10 C    1     2.0066     3.7918    7 H    0 0 0
  10 C    1     2.3567     4.4536   49 H    0 0 0
  10 C    1     2.4137     4.5612   42 O    0 0 1

  11 H    1     0.9301     1.7576    9 C    0 0 0
  11 H    1     2.0194     3.8161    4 C    0 0 0
  11 H    1     2.0379     3.8510   51 C    0 0 0
  11 H    1     2.2343     4.2222   69 H    0 0 0
  11 H    1     2.3087     4.3628    6 H    0 0 0
  11 H    1     2.6143     4.9402   59 O    0 0 0

  12 H    1     0.9301     1.7576   10 C    0 0 0
  12 H    1     2.0194     3.8161    5 C    0 0 0
  12 H    1     2.0379     3.8510    8 C    0 0 0
  12 H    1     2.2343     4.2222   49 H    0 0 0
  12 H    1     2.3087     4.3628    7 H    0 0 0
  12 H    1     2.5855     4.8859   38 H    0 0 0

  13 C    1     1.4045     2.6540    5 C    0 0 0
  13 C    1     1.4191     2.6817    3 C    0 0 0
  13 C    1     1.4388     2.7189   14 C    0 0 0
  13 C    1     2.0282     3.8328    7 H    0 0 0
  13 C    1     2.0602     3.8932   16 H    0 0 0
  13 C    1     2.3755     4.4890   48 H    0 0 1

  14 C    1     0.9300     1.7574   16 H    0 0 0
  14 C    1     1.2898     2.4373   41 N    0 0 0
  14 C    1     1.4388     2.7189   13 C    0 0 0
  14 C    1     2.2891     4.3258   48 H    0 0 1
  14 C    1     2.3481     4.4372   56 C    1 0 1
  14 C    1     2.4609     4.6504    5 C    0 0 0

  15 H    1     0.9300     1.7574   58 C    0 0 0
  15 H    1     1.9245     3.6367   68 N    0 0 0
  15 H    1     2.0602     3.8932   50 C    0 0 0
  15 H    1     2.3852     4.5074   97 H    1 0 0
  15 H    1     2.4372     4.6056    6 H    0 0 0
  15 H    1     2.5042     4.7322   80 C    1 0 0

  16 H    1     0.9300     1.7574   14 C    0 0 0
  16 H    1     1.9245     3.6367   41 N    0 0 0
  16 H    1     2.0602     3.8932   13 C    0 0 0
  16 H    1     2.3852     4.5074   77 H    1 0 1
  16 H    1     2.4372     4.6056    7 H    0 0 0
  16 H    1     2.5042     4.7322   56 C    1 0 1

  17 C    1     0.9297     1.7569   18 H    0 0 0
  17 C    1     1.3820     2.6116   30 C    0 0 0
  17 C    1     1.3955     2.6370   19 C    0 0 0
  17 C    1     2.0125     3.8030   31 H    0 0 0
  17 C    1     2.4028     4.5407   52 N    0 0 0
  17 C    1     2.4138     4.5614   29 C    0 0-1

  18 H    1     0.9297     1.7569   17 C    0 0 0
  18 H    1     2.0132     3.8043   30 C    0 0 0
  18 H    1     2.0261     3.8287   19 C    0 0 0
  18 H    1     2.3059     4.3574   31 H    0 0 0
  18 H    1     2.5578     4.8336   52 N    0 0 0
  18 H    1     2.5898     4.8941   27 H    0 0 0

  19 C    1     1.3955     2.6370   17 C    0 0 0
  19 C    1     1.4039     2.6530   21 C    0 0-1
  19 C    1     1.4076     2.6600   52 N    0 0 0
  19 C    1     2.0261     3.8287   18 H    0 0 0
  19 C    1     2.0351     3.8458   23 H    0 0-1
  19 C    1     2.3481     4.4372   61 C    0 0 0

  20 C    1     0.9295     1.7566   22 H    0 0 0
  20 C    1     1.3857     2.6185   24 C    0 0 0
  20 C    1     1.4039     2.6530   53 C    0 0 0
  20 C    1     2.0163     3.8102   26 H    0 0 0
  20 C    1     2.4159     4.5654   28 C    0 0 0
  20 C    1     2.4176     4.5686   63 C    0 0 0

  21 C    1     0.9295     1.7565   23 H    0 0 0
  21 C    1     1.3857     2.6185   25 C    0 0 0
  21 C    1     1.4039     2.6530   19 C    0 0 1
  21 C    1     2.0163     3.8103   27 H    0 0 0
  21 C    1     2.4159     4.5655   29 C    0 0 0
  21 C    1     2.4176     4.5686   17 C    0 0 1

  22 H    1     0.9295     1.7566   20 C    0 0 0
  22 H    1     2.0175     3.8126   24 C    0 0 0
  22 H    1     2.0351     3.8458   53 C    0 0 0
  22 H    1     2.2616     4.2738   84 H    0 0 0
  22 H    1     2.3118     4.3686   26 H    0 0 0
  22 H    1     2.5697     4.8560  106 O    0 0-1

  23 H    1     0.9295     1.7565   21 C    0 0 0
  23 H    1     2.0175     3.8126   25 C    0 0 0
  23 H    1     2.0351     3.8458   19 C    0 0 1
  23 H    1     2.3118     4.3686   27 H    0 0 0
  23 H    1     2.3852     4.5074   72 H    0 0 0
  23 H    1     2.5916     4.8975  104 H    0 0 0

  24 C    1     0.9302     1.7578   26 H    0 0 0
  24 C    1     1.3857     2.6185   20 C    0 0 0
  24 C    1     1.3977     2.6413   28 C    0 0 0
  24 C    1     2.0175     3.8126   22 H    0 0 0
  24 C    1     2.4113     4.5567   54 C    0 0 0
  24 C    1     2.4158     4.5653   53 C    0 0 0

  25 C    1     0.9302     1.7578   27 H    0 0 0
  25 C    1     1.3857     2.6185   21 C    0 0 0
  25 C    1     1.3977     2.6413   29 C    0 0 0
  25 C    1     2.0175     3.8126   23 H    0 0 0
  25 C    1     2.4113     4.5567   30 C    0 0 1
  25 C    1     2.4159     4.5653   19 C    0 0 1

  26 H    1     0.9302     1.7578   24 C    0 0 0
  26 H    1     2.0163     3.8102   20 C    0 0 0
  26 H    1     2.0273     3.8310   28 C    0 0 0
  26 H    1     2.1662     4.0936   74 H    0 0-1
  26 H    1     2.3118     4.3686   22 H    0 0 0
  26 H    1     2.4476     4.6252   46 O    0 0 0

  27 H    1     0.9302     1.7578   25 C    0 0 0
  27 H    1     2.0163     3.8103   21 C    0 0 0
  27 H    1     2.0273     3.8310   29 C    0 0 0
  27 H    1     2.3118     4.3686   23 H    0 0 0
  27 H    1     2.4475     4.6252   47 O    0 0 0
  27 H    1     2.5898     4.8941   18 H    0 0 0

  28 C    1     1.3973     2.6405   54 C    0 0 0
  28 C    1     1.3977     2.6413   24 C    0 0 0
  28 C    1     1.4818     2.8003   32 C    0 0 0
  28 C    1     2.0263     3.8292   64 H    0 0 0
  28 C    1     2.0273     3.8310   26 H    0 0 0
  28 C    1     2.3476     4.4363   46 O    0 0 0

  29 C    1     1.3973     2.6405   30 C    0 0 1
  29 C    1     1.3977     2.6413   25 C    0 0 0
  29 C    1     1.4818     2.8003   33 C    0 0 0
  29 C    1     2.0263     3.8292   31 H    0 0 1
  29 C    1     2.0273     3.8310   27 H    0 0 0
  29 C    1     2.3476     4.4362   47 O    0 0 0

  30 C    1     0.9301     1.7577   31 H    0 0 0
  30 C    1     1.3820     2.6116   17 C    0 0 0
  30 C    1     1.3973     2.6405   29 C    0 0-1
  30 C    1     2.0132     3.8043   18 H    0 0 0
  30 C    1     2.4086     4.5516   19 C    0 0 0
  30 C    1     2.4113     4.5567   25 C    0 0-1

  31 H    1     0.9301     1.7577   30 C    0 0 0
  31 H    1     2.0125     3.8030   17 C    0 0 0
  31 H    1     2.0263     3.8292   29 C    0 0-1
  31 H    1     2.3059     4.3574   18 H    0 0 0
  31 H    1     2.5350     4.7904   45 O    0 0-1
  31 H    1     2.6104     4.9330   33 C    0 0-1

  32 C    1     1.2177     2.3011   44 O    0 0 0
  32 C    1     1.3288     2.5111   46 O    0 0 0
  32 C    1     1.4818     2.8003   28 C    0 0 0
  32 C    1     2.3585     4.4569   34 C    0 0-1
  32 C    1     2.4732     4.6737   54 C    0 0 0
  32 C    1     2.5232     4.7681   24 C    0 0 0

  33 C    1     1.2177     2.3011   45 O    0 0 0
  33 C    1     1.3288     2.5111   47 O    0 0 0
  33 C    1     1.4818     2.8003   29 C    0 0 0
  33 C    1     2.3585     4.4570   35 C    0 0 0
  33 C    1     2.4732     4.6737   30 C    0 0 1
  33 C    1     2.5232     4.7681   25 C    0 0 0

  34 C    1     0.9593     1.8128   39 H    0 0 0
  34 C    1     0.9598     1.8138   36 H    0 0 0
  34 C    1     0.9602     1.8145   37 H    0 0 0
  34 C    1     1.4490     2.7383   46 O    0 0 1
  34 C    1     2.3585     4.4569   32 C    0 0 1
  34 C    1     2.6513     5.0102   44 O    0 0 1

  35 C    1     0.9593     1.8128   40 H    0 0 0
  35 C    1     0.9598     1.8138   55 H    0 0 0
  35 C    1     0.9602     1.8145   38 H    0 0 0
  35 C    1     1.4490     2.7383   47 O    0 0 0
  35 C    1     2.3585     4.4570   33 C    0 0 0
  35 C    1     2.6513     5.0102   45 O    0 0 0

  36 H    1     0.9598     1.8138   34 C    0 0 0
  36 H    1     1.5668     2.9609   39 H    0 0 0
  36 H    1     1.5676     2.9623   37 H    0 0 0
  36 H    1     1.9870     3.7549   46 O    0 0 1
  36 H    1     2.3540     4.4484   64 H    0 0 0
  36 H    1     2.5312     4.7833   69 H    0 0 0

  37 H    1     0.9602     1.8145   34 C    0 0 0
  37 H    1     1.5674     2.9619   39 H    0 0 0
  37 H    1     1.5676     2.9623   36 H    0 0 0
  37 H    1     1.9874     3.7557   46 O    0 0 1
  37 H    1     2.5860     4.8869   32 C    0 0 1
  37 H    1     2.5899     4.8942   44 O    0 0 1

  38 H    1     0.9602     1.8145   35 C    0 0 0
  38 H    1     1.5674     2.9619   40 H    0 0 0
  38 H    1     1.5676     2.9623   55 H    0 0 0
  38 H    1     1.9875     3.7558   47 O    0 0 0
  38 H    1     2.5855     4.8859   12 H    0 0 0
  38 H    1     2.5861     4.8869   33 C    0 0 0

  39 H    1     0.9593     1.8128   34 C    0 0 0
  39 H    1     1.5668     2.9609   36 H    0 0 0
  39 H    1     1.5674     2.9619   37 H    0 0 0
  39 H    1     1.9867     3.7543   46 O    0 0 1
  39 H    1     2.5292     4.7795   45 O    0 1 0
  39 H    1     2.5937     4.9014   32 C    0 0 1

  40 H    1     0.9593     1.8128   35 C    0 0 0
  40 H    1     1.5668     2.9609   55 H    0 0 0
  40 H    1     1.5674     2.9619   38 H    0 0 0
  40 H    1     1.9867     3.7543   47 O    0 0 0
  40 H    1     2.5937     4.9014   33 C    0 0 0
  40 H    1     2.6372     4.9836   45 O    0 0 0

  41 N    1     1.2898     2.4373   14 C    0 0 0
  41 N    1     1.4076     2.6600   56 C    1 0 1
  41 N    1     1.6764     3.1679   48 H    0 0 1
  41 N    1     1.9245     3.6367   16 H    0 0 0
  41 N    1     2.3802     4.4979   13 C    0 0 0
  41 N    1     2.4028     4.5407   65 C    1 0 1

  42 O    1     0.8642     1.6331   49 H    0 0-1
  42 O    1     1.3625     2.5747    8 C    0 0-1
  42 O    1     2.3449     4.4313    1 C    0 0 0
  42 O    1     2.4137     4.5612   10 C    0 0-1
  42 O    1     2.5080     4.7394    2 H    0 0 0
  42 O    1     2.6143     4.9402   12 H    0 0-1

  43 O    1     1.0098     1.9082   48 H    0 0 0
  43 O    1     1.3501     2.5514    3 C    0 0-1
  43 O    1     2.3534     4.4473    1 C    0 0 0
  43 O    1     2.4069     4.5483   13 C    0 0-1
  43 O    1     2.5315     4.7838    2 H    0 0 0
  43 O    1     2.5950     4.9038   41 N    0 0-1

  44 O    1     1.2177     2.3011   32 C    0 0 0
  44 O    1     1.8840     3.5602   69 H    0 0 0
  44 O    1     2.2414     4.2356   46 O    0 0 0
  44 O    1     2.3817     4.5008   28 C    0 0 0
  44 O    1     2.5350     4.7904   64 H    0 0 0
  44 O    1     2.5899     4.8942   37 H    0 0-1

  45 O    1     1.2177     2.3011   33 C    0 0 0
  45 O    1     1.9294     3.6460   49 H    0 0 0
  45 O    1     2.2414     4.2356   47 O    0 0 0
  45 O    1     2.3817     4.5008   29 C    0 0 0
  45 O    1     2.5292     4.7795   39 H    0-1 0
  45 O    1     2.5350     4.7904   31 H    0 0 1

  46 O    1     1.3288     2.5111   32 C    0 0 0
  46 O    1     1.4490     2.7383   34 C    0 0-1
  46 O    1     1.9867     3.7543   39 H    0 0-1
  46 O    1     1.9870     3.7549   36 H    0 0-1
  46 O    1     1.9874     3.7557   37 H    0 0-1
  46 O    1     2.2414     4.2356   44 O    0 0 0

  47 O    1     1.3288     2.5111   33 C    0 0 0
  47 O    1     1.4490     2.7383   35 C    0 0 0
  47 O    1     1.9867     3.7543   40 H    0 0 0
  47 O    1     1.9870     3.7549   55 H    0 0 0
  47 O    1     1.9875     3.7558   38 H    0 0 0
  47 O    1     2.2414     4.2356   45 O    0 0 0

  48 H    1     1.0098     1.9082   43 O    0 0 0
  48 H    1     1.6764     3.1679   41 N    0 0-1
  48 H    1     1.9021     3.5945    3 C    0 0-1
  48 H    1     2.2891     4.3258   14 C    0 0-1
  48 H    1     2.3755     4.4890   13 C    0 0-1
  48 H    1     2.5916     4.8975   77 H    1 0 1

  49 H    1     0.8642     1.6331   42 O    0 0 1
  49 H    1     1.7976     3.3970    8 C    0 0 0
  49 H    1     1.9294     3.6460   45 O    0 0 0
  49 H    1     2.2343     4.2222   12 H    0 0 0
  49 H    1     2.3567     4.4536   10 C    0 0 0
  49 H    1     2.6521     5.0118   55 H    0 0 1

  50 C    1     1.4045     2.6540    4 C    0 0 0
  50 C    1     1.4191     2.6817   57 C    0 0 0
  50 C    1     1.4388     2.7189   58 C    0 0 0
  50 C    1     2.0282     3.8328    6 H    0 0 0
  50 C    1     2.0602     3.8932   15 H    0 0 0
  50 C    1     2.3755     4.4890   79 H    0 0 0

  51 C    1     1.3625     2.5747   59 O    0 0 0
  51 C    1     1.3864     2.6200   60 C    0 0 0
  51 C    1     1.4013     2.6480    9 C    0 0 0
  51 C    1     1.7976     3.3970   69 H    0 0 0
  51 C    1     2.0208     3.8187   70 H    0 0 0
  51 C    1     2.0379     3.8510   11 H    0 0 0

  52 N    1     1.2898     2.4373   61 C    0 0 0
  52 N    1     1.4076     2.6600   19 C    0 0 0
  52 N    1     1.6764     3.1679  104 H    0 0 0
  52 N    1     1.9245     3.6367   72 H    0 0-1
  52 N    1     2.3802     4.4979   71 C    0 0 0
  52 N    1     2.4028     4.5407   17 C    0 0 0

  53 C    1     1.3955     2.6371   63 C    0 0 0
  53 C    1     1.4039     2.6530   20 C    0 0 0
  53 C    1     1.4076     2.6600   62 N    0 0 0
  53 C    1     2.0260     3.8287   74 H    0 0 0
  53 C    1     2.0324     3.8406  132 H    0 0 0
  53 C    1     2.0351     3.8458   22 H    0 0 0

  54 C    1     0.9301     1.7577   64 H    0 0 0
  54 C    1     1.3820     2.6116   63 C    0 0 0
  54 C    1     1.3973     2.6405   28 C    0 0 0
  54 C    1     2.0132     3.8044   74 H    0 0 0
  54 C    1     2.4086     4.5517   53 C    0 0 0
  54 C    1     2.4113     4.5567   24 C    0 0 0

  55 H    1     0.9598     1.8138   35 C    0 0 0
  55 H    1     1.5668     2.9609   40 H    0 0 0
  55 H    1     1.5676     2.9623   38 H    0 0 0
  55 H    1     1.9870     3.7549   47 O    0 0 0
  55 H    1     2.6208     4.9527   42 O    0 0 0
  55 H    1     2.6521     5.0118   49 H    0 0-1

  56 C    1     1.3955     2.6370   65 C    0 0 0
  56 C    1     1.4039     2.6530   66 C    0 0 0
  56 C    1     1.4076     2.6600   41 N   -1 0-1
  56 C    1     2.0261     3.8287   75 H    0 0 0
  56 C    1     2.0351     3.8458   77 H    0 0 0
  56 C    1     2.3481     4.4372   14 C   -1 0-1

  57 C    1     1.3501     2.5514   67 O    0 0 0
  57 C    1     1.3845     2.6164   60 C    0 0 0
  57 C    1     1.4191     2.6817   50 C    0 0 0
  57 C    1     1.9021     3.5945   79 H    0 0 0
  57 C    1     2.0195     3.8163   70 H    0 0 0
  57 C    1     2.3952     4.5262   51 C    0 0 0

  58 C    1     0.9300     1.7574   15 H    0 0 0
  58 C    1     1.2898     2.4373   68 N    0 0 0
  58 C    1     1.4388     2.7189   50 C    0 0 0
  58 C    1     2.2891     4.3258   79 H    0 0 0
  58 C    1     2.3481     4.4372   80 C    1 0 0
  58 C    1     2.4609     4.6504    4 C    0 0 0

  59 O    1     0.8642     1.6331   69 H    0 0 0
  59 O    1     1.3625     2.5747   51 C    0 0 0
  59 O    1     2.3449     4.4313   60 C    0 0 0
  59 O    1     2.4137     4.5612    9 C    0 0 0
  59 O    1     2.5080     4.7394   70 H    0 0 0
  59 O    1     2.5538     4.8260   36 H    0 0 0

  60 C    1     0.9302     1.7578   70 H    0 0 0
  60 C    1     1.3845     2.6164   57 C    0 0 0
  60 C    1     1.3864     2.6200   51 C    0 0 0
  60 C    1     2.3449     4.4313   59 O    0 0 0
  60 C    1     2.3534     4.4473   67 O    0 0 0
  60 C    1     2.4289     4.5900    9 C    0 0 0

  61 C    1     0.9300     1.7574   72 H    0 0-1
  61 C    1     1.2898     2.4373   52 N    0 0 0
  61 C    1     1.4388     2.7189   71 C    0 0 0
  61 C    1     2.2891     4.3258  104 H    0 0 0
  61 C    1     2.3481     4.4372   19 C    0 0 0
  61 C    1     2.4609     4.6504   81 C    0 0 0

  62 N    1     0.9403     1.7768  132 H    0 0 0
  62 N    1     1.2898     2.4373   73 C    0 0 0
  62 N    1     1.4076     2.6600   53 C    0 0 0
  62 N    1     1.9245     3.6367   84 H    0 0 0
  62 N    1     2.3802     4.4979   83 C    0 0 0
  62 N    1     2.4028     4.5407   63 C    0 0 0

  63 C    1     0.9297     1.7569   74 H    0 0 0
  63 C    1     1.3820     2.6116   54 C    0 0 0
  63 C    1     1.3955     2.6371   53 C    0 0 0
  63 C    1     2.0125     3.8030   64 H    0 0 0
  63 C    1     2.4028     4.5407   62 N    0 0 0
  63 C    1     2.4138     4.5614   28 C    0 0 0

  64 H    1     0.9301     1.7577   54 C    0 0 0
  64 H    1     2.0125     3.8030   63 C    0 0 0
  64 H    1     2.0263     3.8292   28 C    0 0 0
  64 H    1     2.3059     4.3575   74 H    0 0 0
  64 H    1     2.3540     4.4484   36 H    0 0 0
  64 H    1     2.5350     4.7904   44 O    0 0 0

  65 C    1     0.9297     1.7569   75 H    0 0 0
  65 C    1     1.3820     2.6116   76 C    0 0 0
  65 C    1     1.3955     2.6370   56 C    0 0 0
  65 C    1     2.0125     3.8030   85 H    0 0 0
  65 C    1     2.4028     4.5407   41 N   -1 0-1
  65 C    1     2.4138     4.5614   86 C    0 0 0

  66 C    1     0.9295     1.7565   77 H    0 0 0
  66 C    1     1.3857     2.6185   78 C    0 0 0
  66 C    1     1.4039     2.6530   56 C    0 0 0
  66 C    1     2.0163     3.8103   87 H    0 0-1
  66 C    1     2.4159     4.5655   86 C    0 0 0
  66 C    1     2.4176     4.5686   65 C    0 0 0

  67 O    1     1.0098     1.9082   79 H    0 0 0
  67 O    1     1.3501     2.5514   57 C    0 0 0
  67 O    1     2.3534     4.4473   60 C    0 0 0
  67 O    1     2.4069     4.5483   50 C    0 0 0
  67 O    1     2.5315     4.7838   70 H    0 0 0
  67 O    1     2.5950     4.9038   68 N    0 0 0

  68 N    1     1.2898     2.4373   58 C    0 0 0
  68 N    1     1.4076     2.6600   80 C    1 0 0
  68 N    1     1.6764     3.1679   79 H    0 0 0
  68 N    1     1.9245     3.6367   15 H    0 0 0
  68 N    1     2.3802     4.4979   50 C    0 0 0
  68 N    1     2.4028     4.5407   89 C    1 0 1

  69 H    1     0.8642     1.6331   59 O    0 0 0
  69 H    1     1.7976     3.3970   51 C    0 0 0
  69 H    1     1.8840     3.5602   44 O    0 0 0
  69 H    1     2.2343     4.2222   11 H    0 0 0
  69 H    1     2.3567     4.4536    9 C    0 0 0
  69 H    1     2.5312     4.7833   36 H    0 0 0

  70 H    1     0.9302     1.7578   60 C    0 0 0
  70 H    1     2.0195     3.8163   57 C    0 0 0
  70 H    1     2.0208     3.8187   51 C    0 0 0
  70 H    1     2.5080     4.7394   59 O    0 0 0
  70 H    1     2.5315     4.7838   67 O    0 0 0
  70 H    1     2.5807     4.8768    6 H    0 0 1

  71 C    1     1.4045     2.6540   81 C    0 0 0
  71 C    1     1.4191     2.6817   82 C    0 0 0
  71 C    1     1.4388     2.7189   61 C    0 0 0
  71 C    1     2.0282     3.8328   91 H    0 0-1
  71 C    1     2.0602     3.8932   72 H    0 0-1
  71 C    1     2.3755     4.4890  104 H    0 0 0

  72 H    1     0.9300     1.7574   61 C    0 0 1
  72 H    1     1.9245     3.6367   52 N    0 0 1
  72 H    1     2.0602     3.8932   71 C    0 0 1
  72 H    1     2.3852     4.5074   23 H    0 0 0
  72 H    1     2.4372     4.6056   91 H    0 0 0
  72 H    1     2.5042     4.7322   19 C    0 0 1

  73 C    1     0.9300     1.7574   84 H    0 0 0
  73 C    1     1.2898     2.4373   62 N    0 0 0
  73 C    1     1.4388     2.7189   83 C    0 0 0
  73 C    1     1.9434     3.6724  132 H    0 0 0
  73 C    1     2.3481     4.4372   53 C    0 0 0
[...]
   0.8403792   0.8395716   0.8376829   0.8395506   7.2504042   8.2772474
   8.2190717   8.2524001   8.2543287   8.1288408   8.1281530   0.7531422
   0.7137745   6.0383899   5.9042620   7.2472796   5.9111022   6.1248176
   0.8379392   5.9279298   5.9043386   6.0374328   8.2788661   6.1856939
   6.0398731   7.2794765   6.1413710   0.8645278   6.1350028   6.1455304
   8.2196385   7.2492573   0.7123267   0.8615666   6.0377285   0.8612255
   6.0324502   0.8630856   0.8590626   6.1269595   0.8624866   6.1280379
   0.7534707   5.9265942   6.1212548   5.9028066   6.0222896   0.8437068
   0.8674894   6.0124978   0.8563781   6.1459331   6.1357706   6.1772806
   0.8612810   6.1834054   8.2219708   5.9411078   6.1273357   5.8102229
   0.8628493   6.1293899   0.8594799   6.1278977   0.8828573   5.9010907
   0.8590150   0.7542279   6.1910347   8.2184765   6.1673759   0.8630822
   8.2454355   8.1328643   0.8567578   6.0104744   0.8672293   8.2753490
   5.9120738   0.8676899   0.8843295   6.3174029   5.8110865   0.7095849
   8.2801542   0.8383542   0.8403261   0.8411466   8.1335908   8.2438737
   0.7145677   6.3170033   0.8390497   0.8414507   0.8387241   0.7140590
 TTTTTTTTTTTTTTTTTTTTTTTTTTTTTT MOQGAD      TELAPSE       35.49 TCPU       33.54
 TTTTTTTTTTTTTTTTTTTTTTTTTTTTTT SHELLXN     TELAPSE       36.06 TCPU       34.10
 TTTTTTTTTTTTTTTTTTTTTTTTTTTTTT MONMO3      TELAPSE       36.62 TCPU       34.65
 NUMERICALLY INTEGRATED DENSITY    568.0000055217
 TTTTTTTTTTTTTTTTTTTTTTTTTTTTTT NUMDFT      TELAPSE       36.99 TCPU       35.02
 CYC  14 ETOT(AU) -3.659661463044E+03 DETOT -4.25E-04 tst  1.41E-05 PX  1.84E-02
 TTTTTTTTTTTTTTTTTTTTTTTTTTTTTT DIIS        TELAPSE       37.13 TCPU       35.15
 DIIS TEST: 0.28988E-03 AT SCF   CYCLE  14 - DIIS ACTIVE - HISTORY:    14 CYCLES
 TTTTTTTTTTTTTTTTTTTTTTTTTTTTTT FDIK        TELAPSE       37.46 TCPU       35.47
 INSULATING STATE
 TOP OF VALENCE BANDS -    BAND    284; K   29; EIG -3.7557294E-02 AU
 TOP OF VALENCE BANDS -    BAND    284; K    1; EIG -3.8790458E-02 AU
 BOTTOM OF VIRTUAL BANDS - BAND    285; K   34; EIG -2.2404603E-02 AU
 INDIRECT ENERGY BAND GAP:   0.4123 eV
 BOTTOM OF VIRTUAL BANDS - BAND    285; K    1; EIG -2.1590558E-02 AU
 TTTTTTTTTTTTTTTTTTTTTTTTTTTTTT PDIG        TELAPSE       37.53 TCPU       35.52
 CHARGE NORMALIZATION FACTOR   1.00000000
 TOTAL ATOMIC CHARGES:
   6.1873028   0.8607972   5.9025747   6.1242244   6.1233555   0.8625582
   0.8621542   5.9048712   6.1828345   6.1839458   0.8861002   0.8859741
   6.0371042   6.0405083   0.8596016   0.8594349   6.1378459   0.8610486
   5.9222465   6.1433483   6.1482134   0.8544079   0.8618060   6.1279791
   6.1319278   0.8585554   0.8581168   6.0152198   6.0155175   6.1296962
   0.8692672   5.8094794   5.8105374   6.3197192   6.3192155   0.8374084
   0.8407179   0.8401616   0.8375281   0.8396262   7.2443917   8.2803864
   8.2174337   8.2404807   8.2442125   8.1390264   8.1352887   0.7530375
   0.7126821   6.0379223   5.9047894   7.2493010   5.9095025   6.1264635
   0.8380060   5.9205335   5.9027683   6.0409205   8.2811182   6.1871582
   6.0391262   7.2717682   6.1405510   0.8648408   6.1353642   6.1424187
   8.2167743   7.2461885   0.7114151   0.8615149   6.0354774   0.8611128
   6.0173081   0.8632329   0.8591112   6.1311879   0.8628011   6.1291536
   0.7534689   5.9215875   6.1206679   5.9003444   6.0291647   0.8447079
   0.8674354   6.0157445   0.8563878   6.1423080   6.1350191   6.1810042
   0.8614883   6.1857257   8.2159618   5.9381044   6.1234995   5.8090648
   0.8630638   6.1285601   0.8594883   6.1307241   0.8832977   5.9020240
   0.8591287   0.7547690   6.1895161   8.2314752   6.1775057   0.8628492
   8.2472284   8.1336078   0.8568140   6.0158800   0.8672146   8.2776600
   5.9127005   0.8677721   0.8841439   6.3181863   5.8096401   0.7099469
   8.2831632   0.8381167   0.8400849   0.8407453   8.1329734   8.2467566
   0.7146356   6.3174393   0.8389330   0.8411813   0.8386573   0.7147303
 TTTTTTTTTTTTTTTTTTTTTTTTTTTTTT MOQGAD      TELAPSE       37.53 TCPU       35.53
 TTTTTTTTTTTTTTTTTTTTTTTTTTTTTT SHELLXN     TELAPSE       38.10 TCPU       36.09
 TTTTTTTTTTTTTTTTTTTTTTTTTTTTTT MONMO3      TELAPSE       38.66 TCPU       36.64
 NUMERICALLY INTEGRATED DENSITY    568.0000055154
 TTTTTTTTTTTTTTTTTTTTTTTTTTTTTT NUMDFT      TELAPSE       38.94 TCPU       36.92
 CYC  15 ETOT(AU) -3.659661766533E+03 DETOT -3.03E-04 tst  4.37E-06 PX  1.20E-02
 TTTTTTTTTTTTTTTTTTTTTTTTTTTTTT DIIS        TELAPSE       39.08 TCPU       37.06
 DIIS TEST: 0.52257E-04 AT SCF   CYCLE  15 - DIIS ACTIVE - HISTORY:    15 CYCLES
 TTTTTTTTTTTTTTTTTTTTTTTTTTTTTT FDIK        TELAPSE       39.39 TCPU       37.36
 INSULATING STATE
 TOP OF VALENCE BANDS -    BAND    284; K   29; EIG -3.8850667E-02 AU
 TOP OF VALENCE BANDS -    BAND    284; K    1; EIG -4.0122771E-02 AU
 BOTTOM OF VIRTUAL BANDS - BAND    285; K   34; EIG -2.2902143E-02 AU
 INDIRECT ENERGY BAND GAP:   0.4340 eV
 BOTTOM OF VIRTUAL BANDS - BAND    285; K    1; EIG -2.2052620E-02 AU
 TTTTTTTTTTTTTTTTTTTTTTTTTTTTTT PDIG        TELAPSE       39.46 TCPU       37.41
 CHARGE NORMALIZATION FACTOR   1.00000000
 TOTAL ATOMIC CHARGES:
   6.1865692   0.8609564   5.9025214   6.1234834   6.1236340   0.8625644
   0.8621848   5.9042779   6.1833961   6.1833019   0.8859548   0.8860641
   6.0378425   6.0397961   0.8595207   0.8594593   6.1361568   0.8608843
   5.9252225   6.1419955   6.1459086   0.8550988   0.8621178   6.1276421
   6.1309438   0.8587224   0.8578564   6.0111093   6.0182069   6.1305019
   0.8687082   5.8073495   5.8100923   6.3207537   6.3182608   0.8376352
   0.8409477   0.8405975   0.8377890   0.8400945   7.2473280   8.2803195
   8.2172300   8.2472047   8.2459494   8.1313834   8.1321748   0.7531541
   0.7126900   6.0374630   5.9049378   7.2505765   5.9057729   6.1274867
   0.8383266   5.9217651   5.9028116   6.0414856   8.2814793   6.1865414
   6.0391203   7.2759158   6.1390909   0.8647786   6.1355349   6.1436313
   8.2181629   7.2466218   0.7113005   0.8614549   6.0359999   0.8612719
   6.0221644   0.8635779   0.8592028   6.1293327   0.8629262   6.1284737
   0.7532661   5.9219660   6.1206665   5.9013336   6.0303020   0.8437188
   0.8676063   6.0139899   0.8565335   6.1437341   6.1355079   6.1802431
   0.8617098   6.1846173   8.2154551   5.9408925   6.1235748   5.8100598
   0.8630935   6.1285213   0.8594215   6.1292563   0.8831095   5.9022336
   0.8594162   0.7548807   6.1905014   8.2349908   6.1762654   0.8626037
   8.2457137   8.1331426   0.8567468   6.0146930   0.8671984   8.2773908
   5.9122193   0.8674893   0.8836264   6.3192463   5.8105940   0.7096761
   8.2806275   0.8379222   0.8399175   0.8407311   8.1335246   8.2441546
   0.7145230   6.3181039   0.8387800   0.8412313   0.8385118   0.7140008
 TTTTTTTTTTTTTTTTTTTTTTTTTTTTTT MOQGAD      TELAPSE       39.46 TCPU       37.41
 TTTTTTTTTTTTTTTTTTTTTTTTTTTTTT SHELLXN     TELAPSE       40.03 TCPU       37.97
 TTTTTTTTTTTTTTTTTTTTTTTTTTTTTT MONMO3      TELAPSE       40.58 TCPU       38.53
 NUMERICALLY INTEGRATED DENSITY    568.0000055003
 TTTTTTTTTTTTTTTTTTTTTTTTTTTTTT NUMDFT      TELAPSE       40.86 TCPU       38.80
 CYC  16 ETOT(AU) -3.659661819767E+03 DETOT -5.32E-05 tst  2.86E-06 PX  6.31E-03
 TTTTTTTTTTTTTTTTTTTTTTTTTTTTTT DIIS        TELAPSE       41.00 TCPU       38.94
 DIIS TEST: 0.13745E-04 AT SCF   CYCLE  16 - DIIS ACTIVE - HISTORY:    16 CYCLES
 TTTTTTTTTTTTTTTTTTTTTTTTTTTTTT FDIK        TELAPSE       41.32 TCPU       39.24
 INSULATING STATE
 TOP OF VALENCE BANDS -    BAND    284; K   29; EIG -3.8673435E-02 AU
 TOP OF VALENCE BANDS -    BAND    284; K    1; EIG -3.9947204E-02 AU
 BOTTOM OF VIRTUAL BANDS - BAND    285; K   34; EIG -2.2871565E-02 AU
 INDIRECT ENERGY BAND GAP:   0.4300 eV
 BOTTOM OF VIRTUAL BANDS - BAND    285; K    1; EIG -2.2023499E-02 AU
 TTTTTTTTTTTTTTTTTTTTTTTTTTTTTT PDIG        TELAPSE       41.39 TCPU       39.30
 CHARGE NORMALIZATION FACTOR   1.00000000
 TOTAL ATOMIC CHARGES:
   6.1858767   0.8610756   5.9028906   6.1233061   6.1231194   0.8625530
   0.8623397   5.9047171   6.1829906   6.1827342   0.8860102   0.8862579
   6.0374072   6.0405167   0.8595521   0.8594236   6.1375021   0.8607697
   5.9236741   6.1423841   6.1469625   0.8549002   0.8619092   6.1264946
   6.1312988   0.8587686   0.8578532   6.0148988   6.0174066   6.1310975
   0.8686783   5.8088085   5.8092239   6.3201175   6.3182935   0.8376116
   0.8408640   0.8404528   0.8378000   0.8400078   7.2468628   8.2799501
   8.2175788   8.2435944   8.2474302   8.1340036   8.1322289   0.7531703
   0.7128799   6.0376897   5.9049577   7.2483260   5.9060972   6.1266428
   0.8383238   5.9225574   5.9033038   6.0407409   8.2810415   6.1864961
   6.0393276   7.2754091   6.1396657   0.8647373   6.1352168   6.1434687
   8.2177953   7.2474934   0.7113735   0.8614099   6.0358769   0.8613100
   6.0227765   0.8634938   0.8592448   6.1292752   0.8629260   6.1282511
   0.7533026   5.9226574   6.1203539   5.9014013   6.0278344   0.8438449
   0.8676168   6.0145302   0.8565496   6.1437075   6.1356544   6.1804221
   0.8616488   6.1837721   8.2168687   5.9399807   6.1236711   5.8095390
   0.8630006   6.1284986   0.8593393   6.1294765   0.8831076   5.9025479
   0.8594083   0.7547113   6.1894555   8.2344586   6.1758563   0.8627334
   8.2471281   8.1319066   0.8566867   6.0145117   0.8671287   8.2779782
   5.9127812   0.8676405   0.8838039   6.3191202   5.8096873   0.7095977
   8.2820642   0.8380278   0.8400097   0.8408366   8.1317471   8.2464999
   0.7143961   6.3181651   0.8388437   0.8412918   0.8385844   0.7141376
 TTTTTTTTTTTTTTTTTTTTTTTTTTTTTT MOQGAD      TELAPSE       41.39 TCPU       39.30
 TTTTTTTTTTTTTTTTTTTTTTTTTTTTTT SHELLXN     TELAPSE       41.97 TCPU       39.87
 TTTTTTTTTTTTTTTTTTTTTTTTTTTTTT MONMO3      TELAPSE       42.52 TCPU       40.42
 NUMERICALLY INTEGRATED DENSITY    568.0000055122
 TTTTTTTTTTTTTTTTTTTTTTTTTTTTTT NUMDFT      TELAPSE       42.89 TCPU       40.79
 CYC  17 ETOT(AU) -3.659661832659E+03 DETOT -1.29E-05 tst  1.32E-07 PX  2.44E-03
 TTTTTTTTTTTTTTTTTTTTTTTTTTTTTT DIIS        TELAPSE       43.04 TCPU       40.92
 DIIS TEST: 0.33077E-05 AT SCF   CYCLE  17 - DIIS ACTIVE - HISTORY:    17 CYCLES
 TTTTTTTTTTTTTTTTTTTTTTTTTTTTTT FDIK        TELAPSE       43.35 TCPU       41.22
 INSULATING STATE
 TOP OF VALENCE BANDS -    BAND    284; K   29; EIG -3.8653609E-02 AU
 TOP OF VALENCE BANDS -    BAND    284; K    1; EIG -3.9925910E-02 AU
 BOTTOM OF VIRTUAL BANDS - BAND    285; K   34; EIG -2.2851644E-02 AU
 INDIRECT ENERGY BAND GAP:   0.4300 eV
 BOTTOM OF VIRTUAL BANDS - BAND    285; K    1; EIG -2.2004947E-02 AU
 TTTTTTTTTTTTTTTTTTTTTTTTTTTTTT PDIG        TELAPSE       43.42 TCPU       41.28
 CHARGE NORMALIZATION FACTOR   1.00000000
 TOTAL ATOMIC CHARGES:
   6.1861159   0.8610573   5.9028529   6.1234167   6.1229596   0.8625447
   0.8623596   5.9047707   6.1829903   6.1828341   0.8860460   0.8862789
   6.0372423   6.0404577   0.8596109   0.8594209   6.1377204   0.8608103
   5.9235511   6.1427540   6.1474729   0.8548463   0.8618921   6.1263896
   6.1314367   0.8587477   0.8578970   6.0144364   6.0163579   6.1305238
   0.8687744   5.8078939   5.8095761   6.3202085   6.3185163   0.8376292
   0.8408327   0.8403522   0.8377721   0.8399343   7.2466919   8.2797663
   8.2174078   8.2453030   8.2465750   8.1333258   8.1329902   0.7531871
   0.7129241   6.0376762   5.9049638   7.2498181   5.9069950   6.1263356
   0.8382179   5.9223797   5.9031969   6.0405447   8.2809972   6.1866216
   6.0387658   7.2749252   6.1397359   0.8647505   6.1352522   6.1432032
   8.2177559   7.2469309   0.7114398   0.8614059   6.0360689   0.8612897
   6.0219076   0.8634454   0.8592194   6.1296583   0.8628605   6.1284724
   0.7533240   5.9224665   6.1203515   5.9013051   6.0282939   0.8439911
   0.8675853   6.0149576   0.8565277   6.1434528   6.1355492   6.1804066
   0.8616200   6.1845420   8.2164464   5.9400143   6.1237773   5.8096497
   0.8629583   6.1287974   0.8593596   6.1298392   0.8830882   5.9022278
   0.8593178   0.7547438   6.1901002   8.2342610   6.1757610   0.8627419
   8.2464672   8.1327487   0.8566837   6.0148977   0.8671223   8.2775274
   5.9126188   0.8675996   0.8838291   6.3187411   5.8101053   0.7096523
   8.2818609   0.8380538   0.8400569   0.8408581   8.1328841   8.2453366
   0.7144280   6.3178278   0.8388501   0.8412850   0.8386013   0.7142171
 TTTTTTTTTTTTTTTTTTTTTTTTTTTTTT MOQGAD      TELAPSE       43.42 TCPU       41.28
 TTTTTTTTTTTTTTTTTTTTTTTTTTTTTT SHELLXN     TELAPSE       43.98 TCPU       41.83
 TTTTTTTTTTTTTTTTTTTTTTTTTTTTTT MONMO3      TELAPSE       44.54 TCPU       42.39
 NUMERICALLY INTEGRATED DENSITY    568.0000055120
 TTTTTTTTTTTTTTTTTTTTTTTTTTTTTT NUMDFT      TELAPSE       44.82 TCPU       42.67
 CYC  18 ETOT(AU) -3.659661835224E+03 DETOT -2.57E-06 tst  1.99E-08 PX  1.16E-03
 TTTTTTTTTTTTTTTTTTTTTTTTTTTTTT DIIS        TELAPSE       44.97 TCPU       42.82
 DIIS TEST: 0.63435E-06 AT SCF   CYCLE  18 - DIIS ACTIVE - HISTORY:    18 CYCLES
 TTTTTTTTTTTTTTTTTTTTTTTTTTTTTT FDIK        TELAPSE       45.28 TCPU       43.10
 INSULATING STATE
 TOP OF VALENCE BANDS -    BAND    284; K   29; EIG -3.8669487E-02 AU
 TOP OF VALENCE BANDS -    BAND    284; K    1; EIG -3.9938960E-02 AU
 BOTTOM OF VIRTUAL BANDS - BAND    285; K   34; EIG -2.2872665E-02 AU
 INDIRECT ENERGY BAND GAP:   0.4299 eV
 BOTTOM OF VIRTUAL BANDS - BAND    285; K    1; EIG -2.2028007E-02 AU
 TTTTTTTTTTTTTTTTTTTTTTTTTTTTTT PDIG        TELAPSE       45.34 TCPU       43.16
 CHARGE NORMALIZATION FACTOR   1.00000000
 TOTAL ATOMIC CHARGES:
   6.1861841   0.8610332   5.9028343   6.1235329   6.1231898   0.8625553
   0.8623069   5.9046589   6.1829292   6.1828597   0.8860669   0.8862506
   6.0374115   6.0404917   0.8596009   0.8594150   6.1372528   0.8608775
   5.9235531   6.1424558   6.1470809   0.8548531   0.8619610   6.1269382
   6.1313690   0.8587084   0.8579202   6.0138836   6.0168630   6.1306841
   0.8687996   5.8081924   5.8097463   6.3202584   6.3187290   0.8375809
   0.8407909   0.8403176   0.8377294   0.8398936   7.2465602   8.2798444
   8.2174834   8.2445832   8.2468224   8.1339460   8.1324976   0.7531541
   0.7129099   6.0377596   5.9048859   7.2491648   5.9070774   6.1267516
   0.8382004   5.9224239   5.9031327   6.0408047   8.2809884   6.1866365
   6.0392790   7.2749245   6.1395825   0.8647417   6.1352789   6.1435246
   8.2178805   7.2467811   0.7114511   0.8614332   6.0360485   0.8612528
   6.0217593   0.8634477   0.8592086   6.1294632   0.8628589   6.1284373
   0.7533148   5.9226138   6.1206796   5.9013087   6.0287687   0.8439974
   0.8676154   6.0144017   0.8565206   6.1437098   6.1354505   6.1803374
   0.8615841   6.1845773   8.2164477   5.9400778   6.1238861   5.8094793
   0.8629967   6.1285839   0.8593964   6.1295395   0.8830587   5.9022719
   0.8592996   0.7547377   6.1901161   8.2340532   6.1756863   0.8627370
   8.2468404   8.1326202   0.8567271   6.0144642   0.8671924   8.2775379
   5.9125270   0.8676130   0.8838217   6.3187390   5.8099277   0.7096308
   8.2815371   0.8380793   0.8400564   0.8408758   8.1325778   8.2459035
   0.7144793   6.3178616   0.8388754   0.8413107   0.8385973   0.7142168
 TTTTTTTTTTTTTTTTTTTTTTTTTTTTTT MOQGAD      TELAPSE       45.34 TCPU       43.16
 TTTTTTTTTTTTTTTTTTTTTTTTTTTTTT SHELLXN     TELAPSE       45.91 TCPU       43.72
 TTTTTTTTTTTTTTTTTTTTTTTTTTTTTT MONMO3      TELAPSE       46.46 TCPU       44.27
 NUMERICALLY INTEGRATED DENSITY    568.0000055099
 TTTTTTTTTTTTTTTTTTTTTTTTTTTTTT NUMDFT      TELAPSE       46.73 TCPU       44.53
 CYC  19 ETOT(AU) -3.659661835622E+03 DETOT -3.98E-07 tst  6.57E-09 PX  5.27E-04
 TTTTTTTTTTTTTTTTTTTTTTTTTTTTTT DIIS        TELAPSE       46.89 TCPU       44.69
 DIIS TEST: 0.31254E-06 AT SCF   CYCLE  19 - DIIS ACTIVE - HISTORY:    19 CYCLES
 TTTTTTTTTTTTTTTTTTTTTTTTTTTTTT FDIK        TELAPSE       47.18 TCPU       44.96
 INSULATING STATE
 TOP OF VALENCE BANDS -    BAND    284; K   29; EIG -3.8668365E-02 AU
 TOP OF VALENCE BANDS -    BAND    284; K    1; EIG -3.9936962E-02 AU
 BOTTOM OF VIRTUAL BANDS - BAND    285; K   34; EIG -2.2868475E-02 AU
 INDIRECT ENERGY BAND GAP:   0.4299 eV
 BOTTOM OF VIRTUAL BANDS - BAND    285; K    1; EIG -2.2024454E-02 AU
 TTTTTTTTTTTTTTTTTTTTTTTTTTTTTT PDIG        TELAPSE       47.24 TCPU       45.02
 CHARGE NORMALIZATION FACTOR   1.00000000
 TOTAL ATOMIC CHARGES:
   6.1861562   0.8610328   5.9027905   6.1234197   6.1231347   0.8625653
   0.8623072   5.9046836   6.1830076   6.1829227   0.8860659   0.8862444
   6.0373600   6.0403539   0.8595964   0.8594215   6.1374036   0.8608558
   5.9236449   6.1425922   6.1471438   0.8548468   0.8619449   6.1267622
   6.1313122   0.8587156   0.8579255   6.0142399   6.0168331   6.1306320
   0.8688020   5.8081992   5.8096490   6.3202809   6.3186484   0.8375912
   0.8408033   0.8403389   0.8377343   0.8399122   7.2467126   8.2799440
   8.2174534   8.2448558   8.2467409   8.1336335   8.1326597   0.7531570
   0.7128876   6.0376808   5.9049273   7.2492807   5.9068773   6.1266425
   0.8382163   5.9222731   5.9031195   6.0406635   8.2810663   6.1865929
   6.0391655   7.2749851   6.1396897   0.8647429   6.1352973   6.1433611
   8.2177309   7.2470955   0.7114399   0.8614387   6.0359479   0.8612623
   6.0218922   0.8634445   0.8592078   6.1295615   0.8628679   6.1284652
   0.7533327   5.9224735   6.1205192   5.9012722   6.0284267   0.8439876
   0.8675993   6.0146363   0.8565186   6.1435287   6.1355100   6.1803870
   0.8616023   6.1843749   8.2165644   5.9398515   6.1237059   5.8096386
   0.8630019   6.1286119   0.8593872   6.1296382   0.8830836   5.9023013
   0.8593223   0.7547345   6.1898779   8.2343141   6.1758293   0.8627570
   8.2466239   8.1326571   0.8567240   6.0146806   0.8671745   8.2776651
   5.9125565   0.8676349   0.8838319   6.3187908   5.8100540   0.7096316
   8.2817553   0.8380588   0.8400439   0.8408529   8.1326640   8.2456519
   0.7144569   6.3178870   0.8388617   0.8412919   0.8385934   0.7142137
 TTTTTTTTTTTTTTTTTTTTTTTTTTTTTT MOQGAD      TELAPSE       47.25 TCPU       45.02
 TTTTTTTTTTTTTTTTTTTTTTTTTTTTTT SHELLXN     TELAPSE       47.80 TCPU       45.57
 +++ ENERGIES IN A.U. +++
 ::: EXT EL-POLE                                  -1.1556187930472E+04
 ::: EXT EL-SPHEROPOLE                             6.7120994633399E+01
 ::: BIELET ZONE E-E                               1.2825519403073E+04
 ::: TOTAL E-E                                     1.3364524672341E+03
 ::: TOTAL E-N + N-E                              -7.5730300886465E+03
 ::: TOTAL N-N                                    -5.7817833638787E+02
 ::: KINETIC ENERGY                                3.6362028045290E+03
 ::: PSEUDO TOTAL   ENERGY                        -3.1785531532713E+03
 ::: VIRIAL COEFFICIENT                            1.0671556918680E+00
 TTTTTTTTTTTTTTTTTTTTTTTTTTTTTT MONMO3      TELAPSE       48.34 TCPU       46.11
 NUMERICALLY INTEGRATED DENSITY    568.0000055107
 EXCHANGE ENERGY: -0.443405176062E+03  CORRELATION ENERGY: -0.377035065568E+02
 TTTTTTTTTTTTTTTTTTTTTTTTTTTTTT NUMDFT      TELAPSE       48.60 TCPU       46.37
 CYC  20 ETOT(AU) -3.659661835890E+03 DETOT -2.68E-07 tst  1.95E-09 PX  5.27E-04

 == SCF ENDED - CONVERGENCE ON ENERGY      E(AU) -3.6596618358904E+03 CYCLES  20


 ENERGY EXPRESSION=HARTREE+FOCK EXCH*0.00000+(LDA        EXCH)*1.00000+VWN        CORR


 TOTAL ENERGY(DFT)(AU)( 20) -3.6596618358904E+03 DE-2.7E-07 tester 1.9E-09
 TTTTTTTTTTTTTTTTTTTTTTTTTTTTTT EDFT        TELAPSE       48.61 TCPU       46.37
 EIGENVECTORS IN FORTRAN UNIT  8
 TTTTTTTTTTTTTTTTTTTTTTTTTTTTTT END         TELAPSE       48.73 TCPU       46.47
 EEEEEEEEEE TERMINATION  DATE 26 07 2024 TIME 16:21:59.8
pe files deleted
rm: cannot remove 'fort.24': No such file or directory
rm: cannot remove 'fort.25': No such file or directory
rm: cannot remove 'fort.89': No such file or directory
rm: cannot remove 'fort.90': No such file or directory
rm: cannot remove 'fort.85': No such file or directory
rm: cannot remove 'fort.32': No such file or directory
TMPDIR copied back to SUBMIT_DIR
TMPDIR deleted
