TMPDIR created
cp: cannot stat '/home/unamur/ucpts/ndeveaux/BASISSETS.DAT': No such file or directory
         128 PROCESSORS WORKING

         
 *******************************************************************************
 *                                                                             *
 *                               CRYSTAL23                                     *
 *                      public : 1.0.1 - October 2022                          *
 *                       HTTP://WWW.CRYSTAL.UNITO.IT                           *
 *                                                                             *
 *                              MAIN AUTHORS                                   *
 *                                                                             *
 *  R. DOVESI(1,11), V.R. SAUNDERS(2), C. ROETTI(1,11), R. ORLANDO(1,11),      *
 *  C.M. ZICOVICH-WILSON(1,3), F. PASCALE(4), B. CIVALLERI(1,11),              *
 *  K. DOLL(5), N.M. HARRISON(6), I.J. BUSH(7), Ph. D'ARCO(8),                 *
 *  M. LLUNELL(9), M. CAUSA'(10), Y. NOEL(8), L. MASCHIO(1,11), A. ERBA(1,11)  *
 *  M. RE'RAT(14), S. CASASSA(1,11), B.G. SEARLE(2), J.K. DESMARAIS(1)         *
 *                                                                             *
 *        CONTRIBUTIONS TO THE CODE HAVE ALSO BEEN GIVEN BY                    *
 *                                                                             *
 *  M. FERRABONE(1,11), M. DE LA PIERRE(1,11), M. FERRERO(1,11),               *
 *  J. BAIMA(1,11), E. ALBANESE(1,11), M.F. PEINTINGER(12), R. BAST(13),       *
 *  B. KIRTMAN(15), V. LACIVITA(1,11), R. DEMICHELIS(1,16)                     *
 *  G. BRANDEBURG(17), S. SALUSTRO(1,11), G. SANSONE(1,11)                     *
 *  M.T. RUGGIERO(18), L.E. DAGA(1), L. DONA'(1), A. COSSARD(1)                *
 *                                                                             *
 * (1) THEORETICAL CHEMISTRY GROUP - UNIVERSITA' DI TORINO - TORINO (ITALY)    *
 * (2) SCIENTIFIC COMPUTING DEPARTMENT - STFC DARESBURY (UK)                   *
 * (3) UNIVERSIDAD AUTONOMA DEL ESTADO DE MORELOS - CUERNAVACA (MEXICO)        *
 * (4) UNIVERSITE' DE LORRAINE - NANCY (FRANCE)                                *
 * (5) UNIVERSITAET STUTTGART- STUTTGART (GERMANY)                             *
 * (6) IMPERIAL COLLEGE - LONDON (UK)                                          *
 * (7) SCIENTIFIC COMPUTING DEPARTMENT - STFC RAL (UK)                         *
 * (8) UPMC - SORBONNE UNIVERSITES - PARIS (FRANCE)                            *
 * (9) UNIVERSIDAD DE BARCELONA - BARCELONA (SPAIN)                            *
 *(10) UNIVERSITA' DI NAPOLI "FEDERICO II" - NAPOLI (ITALY)                    *
 *(11) NIS - NANOSTRUCTURED INTERFACES AND SURFACES - TORINO (ITALY)           *
 *(12) MPI FUER CHEMISCHE ENERGIEKONVERSION - MUELHEIM AN DER RUHR (GERMANY)   *
 *(13) UNIVERSITY OF TROMSO - TROMSO (NORWAY)                                  *
 *(14) UNIVERSITE' DE PAU ET DES PAYS DE L'ADOUR - PAU (FRANCE)                *
 *(15) UNIVERSITY OF CALIFORNIA SANTA BARBARA - SANTA BARBARA (USA)            *
 *(16) CURTIN UNIVERSITY - PERTH (AUSTRALIA)                                   *
 *(17) UNIVERSITY COLLEGE LONDON - LONDON (UK)                                 *
 *(18) UNIVERSITY OF VERMONT - BURLINGTON (USA)                                *
 *                                                                             *
 *******************************************************************************
 EEEEEEEEEE STARTING  DATE 24 07 2024 TIME 14:57:23.0
 ANIL4AENOL opt                                                                  

 CRYSTAL CALCULATION
 (INPUT ACCORDING TO THE INTERNATIONAL TABLES FOR X-RAY CRYSTALLOGRAPHY)
 CRYSTAL FAMILY                       :  MONOCLINIC  
 CRYSTAL CLASS  (GROTH - 1921)        :  MONOCLINIC DOMATIC                   

 SPACE GROUP (NONCENTROSYMMETRIC)     :  PC              

 LATTICE PARAMETERS  (ANGSTROMS AND DEGREES) - CONVENTIONAL CELL
        A           B           C        ALPHA        BETA       GAMMA
    14.73900     7.02710     6.09590    90.00000    99.20900    90.00000


 NUMBER OF IRREDUCIBLE ATOMS IN THE CONVENTIONAL CELL:   33

 INPUT COORDINATES

 ATOM AT. N.              COORDINATES
   1   6     7.097400000000E-01  1.798000000000E-01  3.426000000000E-01
   2   1     7.038000000000E-01  1.258000000000E-01  4.789000000000E-01
   3   6     7.959700000000E-01  2.061000000000E-01  2.848000000000E-01
   4   6     7.252900000000E-01  3.316000000000E-01 -7.200000000000E-02
   5   1     7.303000000000E-01  3.798000000000E-01 -2.117000000000E-01
   6   6     6.322500000000E-01  2.343000000000E-01  1.961000000000E-01
   7   6     6.392900000000E-01  3.114000000000E-01 -1.250000000000E-02
   8   1     5.869000000000E-01  3.484000000000E-01 -1.091000000000E-01
   9   6     8.054300000000E-01  2.811000000000E-01  7.350000000000E-02
  10   6     8.936400000000E-01  2.988000000000E-01  2.900000000000E-03
  11   1     8.965000000000E-01  3.367000000000E-01 -1.420000000000E-01
  12   6     1.131010000000E+00  3.274000000000E-01  2.026000000000E-01
  13   1     1.124600000000E+00  3.761000000000E-01  3.411000000000E-01
  14   6     1.053980000000E+00  2.610000000000E-01  5.990000000000E-02
  15   6     1.064740000000E+00  1.830000000000E-01 -1.464000000000E-01
  16   1     1.014000000000E+00  1.360000000000E-01 -2.412000000000E-01
  17   6     1.151030000000E+00  1.762000000000E-01 -2.089000000000E-01
  18   1     1.157900000000E+00  1.246000000000E-01 -3.458000000000E-01
  19   6     1.227840000000E+00  2.461000000000E-01 -6.750000000000E-02
  20   6     1.216830000000E+00  3.211000000000E-01  1.389000000000E-01
  21   1     1.267700000000E+00  3.672000000000E-01  2.342000000000E-01
  22   6     1.320840000000E+00  2.483000000000E-01 -1.306000000000E-01
  23   6     1.409790000000E+00  1.939000000000E-01 -4.135000000000E-01
  24   1     1.403600000000E+00  1.416000000000E-01 -5.606000000000E-01
  25   1     1.455200000000E+00  1.231000000000E-01 -3.159000000000E-01
  26   1     1.428500000000E+00  3.245000000000E-01 -4.165000000000E-01
  27   7     9.688000000000E-01  2.632000000000E-01  1.364000000000E-01
  28   8     5.493900000000E-01  2.105000000000E-01  2.645000000000E-01
  29   8     8.707800000000E-01  1.609000000000E-01  4.340000000000E-01
  30   8     1.388760000000E+00  3.082000000000E-01 -1.020000000000E-02
  31   8     1.322350000000E+00  1.824000000000E-01 -3.343000000000E-01
  32   1     9.260000000000E-01  1.880000000000E-01  3.600000000000E-01
  33   1     5.090000000000E-01  2.510000000000E-01  1.560000000000E-01

 *******************************************************************************

 << INFORMATION >>: FROM NOW ON, ALL COORDINATES REFER TO THE PRIMITIVE CELL

 *******************************************************************************

 LATTICE PARAMETERS  (ANGSTROMS AND DEGREES) - PRIMITIVE CELL
       A          B          C        ALPHA      BETA     GAMMA        VOLUME
   14.73900    7.02710    6.09590    90.00000  99.20900  90.00000    623.229553

 COORDINATES OF THE EQUIVALENT ATOMS (FRACTIONAL UNITS)

 N. ATOM EQUIV AT. N.          X                  Y                  Z

   1   1   1    6 C    -2.90260000000E-01  1.79800000000E-01  3.42600000000E-01
   2   1   2    6 C    -2.90260000000E-01 -1.79800000000E-01 -1.57400000000E-01

   3   2   1    1 H    -2.96200000000E-01  1.25800000000E-01  4.78900000000E-01
   4   2   2    1 H    -2.96200000000E-01 -1.25800000000E-01 -2.11000000000E-02

   5   3   1    6 C    -2.04030000000E-01  2.06100000000E-01  2.84800000000E-01
   6   3   2    6 C    -2.04030000000E-01 -2.06100000000E-01 -2.15200000000E-01

   7   4   1    6 C    -2.74710000000E-01  3.31600000000E-01 -7.20000000000E-02
   8   4   2    6 C    -2.74710000000E-01 -3.31600000000E-01  4.28000000000E-01

   9   5   1    1 H    -2.69700000000E-01  3.79800000000E-01 -2.11700000000E-01
  10   5   2    1 H    -2.69700000000E-01 -3.79800000000E-01  2.88300000000E-01

  11   6   1    6 C    -3.67750000000E-01  2.34300000000E-01  1.96100000000E-01
  12   6   2    6 C    -3.67750000000E-01 -2.34300000000E-01 -3.03900000000E-01

  13   7   1    6 C    -3.60710000000E-01  3.11400000000E-01 -1.25000000000E-02
  14   7   2    6 C    -3.60710000000E-01 -3.11400000000E-01  4.87500000000E-01

  15   8   1    1 H    -4.13100000000E-01  3.48400000000E-01 -1.09100000000E-01
  16   8   2    1 H    -4.13100000000E-01 -3.48400000000E-01  3.90900000000E-01

  17   9   1    6 C    -1.94570000000E-01  2.81100000000E-01  7.35000000000E-02
  18   9   2    6 C    -1.94570000000E-01 -2.81100000000E-01 -4.26500000000E-01

  19  10   1    6 C    -1.06360000000E-01  2.98800000000E-01  2.90000000000E-03
  20  10   2    6 C    -1.06360000000E-01 -2.98800000000E-01 -4.97100000000E-01

  21  11   1    1 H    -1.03500000000E-01  3.36700000000E-01 -1.42000000000E-01
  22  11   2    1 H    -1.03500000000E-01 -3.36700000000E-01  3.58000000000E-01

  23  12   1    6 C     1.31010000000E-01  3.27400000000E-01  2.02600000000E-01
  24  12   2    6 C     1.31010000000E-01 -3.27400000000E-01 -2.97400000000E-01

  25  13   1    1 H     1.24600000000E-01  3.76100000000E-01  3.41100000000E-01
  26  13   2    1 H     1.24600000000E-01 -3.76100000000E-01 -1.58900000000E-01

  27  14   1    6 C     5.39800000000E-02  2.61000000000E-01  5.99000000000E-02
  28  14   2    6 C     5.39800000000E-02 -2.61000000000E-01 -4.40100000000E-01

  29  15   1    6 C     6.47400000000E-02  1.83000000000E-01 -1.46400000000E-01
  30  15   2    6 C     6.47400000000E-02 -1.83000000000E-01  3.53600000000E-01

  31  16   1    1 H     1.40000000000E-02  1.36000000000E-01 -2.41200000000E-01
  32  16   2    1 H     1.40000000000E-02 -1.36000000000E-01  2.58800000000E-01

  33  17   1    6 C     1.51030000000E-01  1.76200000000E-01 -2.08900000000E-01
  34  17   2    6 C     1.51030000000E-01 -1.76200000000E-01  2.91100000000E-01

  35  18   1    1 H     1.57900000000E-01  1.24600000000E-01 -3.45800000000E-01
  36  18   2    1 H     1.57900000000E-01 -1.24600000000E-01  1.54200000000E-01

  37  19   1    6 C     2.27840000000E-01  2.46100000000E-01 -6.75000000000E-02
  38  19   2    6 C     2.27840000000E-01 -2.46100000000E-01  4.32500000000E-01

  39  20   1    6 C     2.16830000000E-01  3.21100000000E-01  1.38900000000E-01
  40  20   2    6 C     2.16830000000E-01 -3.21100000000E-01 -3.61100000000E-01

  41  21   1    1 H     2.67700000000E-01  3.67200000000E-01  2.34200000000E-01
  42  21   2    1 H     2.67700000000E-01 -3.67200000000E-01 -2.65800000000E-01

  43  22   1    6 C     3.20840000000E-01  2.48300000000E-01 -1.30600000000E-01
  44  22   2    6 C     3.20840000000E-01 -2.48300000000E-01  3.69400000000E-01

  45  23   1    6 C     4.09790000000E-01  1.93900000000E-01 -4.13500000000E-01
  46  23   2    6 C     4.09790000000E-01 -1.93900000000E-01  8.65000000000E-02

  47  24   1    1 H     4.03600000000E-01  1.41600000000E-01  4.39400000000E-01
  48  24   2    1 H     4.03600000000E-01 -1.41600000000E-01 -6.06000000000E-02

  49  25   1    1 H     4.55200000000E-01  1.23100000000E-01 -3.15900000000E-01
  50  25   2    1 H     4.55200000000E-01 -1.23100000000E-01  1.84100000000E-01

  51  26   1    1 H     4.28500000000E-01  3.24500000000E-01 -4.16500000000E-01
  52  26   2    1 H     4.28500000000E-01 -3.24500000000E-01  8.35000000000E-02

  53  27   1    7 N    -3.12000000000E-02  2.63200000000E-01  1.36400000000E-01
  54  27   2    7 N    -3.12000000000E-02 -2.63200000000E-01 -3.63600000000E-01

  55  28   1    8 O    -4.50610000000E-01  2.10500000000E-01  2.64500000000E-01
  56  28   2    8 O    -4.50610000000E-01 -2.10500000000E-01 -2.35500000000E-01

  57  29   1    8 O    -1.29220000000E-01  1.60900000000E-01  4.34000000000E-01
  58  29   2    8 O    -1.29220000000E-01 -1.60900000000E-01 -6.60000000000E-02

  59  30   1    8 O     3.88760000000E-01  3.08200000000E-01 -1.02000000000E-02
  60  30   2    8 O     3.88760000000E-01 -3.08200000000E-01  4.89800000000E-01

  61  31   1    8 O     3.22350000000E-01  1.82400000000E-01 -3.34300000000E-01
  62  31   2    8 O     3.22350000000E-01 -1.82400000000E-01  1.65700000000E-01

  63  32   1    1 H    -7.40000000000E-02  1.88000000000E-01  3.60000000000E-01
  64  32   2    1 H    -7.40000000000E-02 -1.88000000000E-01 -1.40000000000E-01

  65  33   1    1 H    -4.91000000000E-01  2.51000000000E-01  1.56000000000E-01
  66  33   2    1 H    -4.91000000000E-01 -2.51000000000E-01 -3.44000000000E-01

 NUMBER OF SYMMETRY OPERATORS         :    2
 *******************************************************************************
 * GEOMETRY EDITING - INPUT COORDINATES ARE GIVEN IN ANGSTROM         
 *******************************************************************************

 GEOMETRY NOW FULLY CONSISTENT WITH THE GROUP
 INFORMATION **** NEW DEFAULT **** FINALRUN 4 FOR GEOMETRY OPTIMIZATIONS
 INFORMATION **** NEW DEFAULT **** OPTGEOM OPTIMIZES BOTH ATOMIC COORDINATES AND CELL PARAMETERS
 INFORMATION **** NEW DEFAULT **** TOL. ON ATOMIC DISP TO REDEFINE REF. GEOMETRY: 0.8 Angs
 INFORMATION **** NEW DEFAULT **** N POINTS TO REDEFINE REF. GEOMETRY: N OF OPT DEGS OF FREEDOM
 INFORMATION **** NEW DEFAULT **** TOL. ON ENERGY TO REDEFINE REF. GEOMETRY: 10**-3*(5*N. ATOMS)
 INFORMATION **** FULLOPTG **** FULL OPTIMIZATION (ATOMS AND CELL PARAMETERS)

 IMPORTANT INFORMATION:
 THE COORDINATE SYSTEM ADOPTED IN THE OPTIMIZATION IS NOT IN
 GENERAL HOMOGENEOUS UNITS. FOR THIS REASON THE GRADIENT AND 
 HESSIAN MATRIX IN TERMS OF THIS SYSTEM ARE GIVEN WITHOUT
 UNITS. FOR MORE DETAILS SEE THE MANUAL.

 *******************************************************************************
 COMBINED CELL/ATOM OPTIMIZATION CONTROL

 INITIAL TRUST RADIUS         0.50000 MAXIMUM TRUST RADIUS               4.00000
 MAXIMUM GRADIENT COMPONENT   0.00045 MAXIMUM DISPLACEMENT COMPONENT     0.00180
 R.M.S. OF GRADIENT COMPONENT 0.00030 R.M.S. OF DISPLACEMENT COMPONENTS  0.00120
 THRESHOLD ON ENERGY CHANGE 0.100E-06 EXTRAPOLATING POLYNOMIAL ORDER           2
 MAXIMUM ALLOWED NUMBER OF STEPS   -1 SORTING OF ENERGY POINTS:               NO
 ANALYTICAL  GRADIENT                 HESSIAN UPDATING                      BFGS
 STEP SIZE NUMERICAL GRADIENT 0.00100
 INITIAL HESSIAN MATRIX: SCHLEGEL MODEL 2
 *******************************************************************************


 GCALCO - MAX INDICES DIRECT LATTICE VECTOR     8    18    21
 NO.OF VECTORS CREATED 6999 STARS 1847 RMAX   191.65739 BOHR

 GEOMETRY FOR WAVE FUNCTION - DIMENSIONALITY OF THE SYSTEM    3
 (NON PERIODIC DIRECTION: LATTICE PARAMETER FORMALLY SET TO 500)
 *******************************************************************************
 LATTICE PARAMETERS (ANGSTROMS AND DEGREES) - BOHR = 0.5291772083 ANGSTROM
 PRIMITIVE CELL - CENTRING CODE 1/0 VOLUME=   623.229553 - DENSITY  1.445 g/cm^3
         A              B              C           ALPHA      BETA       GAMMA 
    14.73900000     7.02710000     6.09590000    90.000000  99.209000  90.000000
 *******************************************************************************
 ATOMS IN THE ASYMMETRIC UNIT   33 - ATOMS IN THE UNIT CELL:   66
     ATOM                 X/A                 Y/B                 Z/C    
 *******************************************************************************
      1 T   6 C    -2.902600000000E-01  1.798000000000E-01  3.426000000000E-01
      2 F   6 C    -2.902600000000E-01 -1.798000000000E-01 -1.574000000000E-01
      3 T   1 H    -2.962000000000E-01  1.258000000000E-01  4.789000000000E-01
      4 F   1 H    -2.962000000000E-01 -1.258000000000E-01 -2.110000000000E-02
      5 T   6 C    -2.040300000000E-01  2.061000000000E-01  2.848000000000E-01
      6 F   6 C    -2.040300000000E-01 -2.061000000000E-01 -2.152000000000E-01
      7 T   6 C    -2.747100000000E-01  3.316000000000E-01 -7.200000000000E-02
      8 F   6 C    -2.747100000000E-01 -3.316000000000E-01  4.280000000000E-01
      9 T   1 H    -2.697000000000E-01  3.798000000000E-01 -2.117000000000E-01
     10 F   1 H    -2.697000000000E-01 -3.798000000000E-01  2.883000000000E-01
     11 T   6 C    -3.677500000000E-01  2.343000000000E-01  1.961000000000E-01
     12 F   6 C    -3.677500000000E-01 -2.343000000000E-01 -3.039000000000E-01
     13 T   6 C    -3.607100000000E-01  3.114000000000E-01 -1.250000000000E-02
     14 F   6 C    -3.607100000000E-01 -3.114000000000E-01  4.875000000000E-01
     15 T   1 H    -4.131000000000E-01  3.484000000000E-01 -1.091000000000E-01
     16 F   1 H    -4.131000000000E-01 -3.484000000000E-01  3.909000000000E-01
     17 T   6 C    -1.945700000000E-01  2.811000000000E-01  7.350000000000E-02
     18 F   6 C    -1.945700000000E-01 -2.811000000000E-01 -4.265000000000E-01
     19 T   6 C    -1.063600000000E-01  2.988000000000E-01  2.900000000000E-03
     20 F   6 C    -1.063600000000E-01 -2.988000000000E-01 -4.971000000000E-01
     21 T   1 H    -1.035000000000E-01  3.367000000000E-01 -1.420000000000E-01
     22 F   1 H    -1.035000000000E-01 -3.367000000000E-01  3.580000000000E-01
     23 T   6 C     1.310100000000E-01  3.274000000000E-01  2.026000000000E-01
     24 F   6 C     1.310100000000E-01 -3.274000000000E-01 -2.974000000000E-01
     25 T   1 H     1.246000000000E-01  3.761000000000E-01  3.411000000000E-01
     26 F   1 H     1.246000000000E-01 -3.761000000000E-01 -1.589000000000E-01
     27 T   6 C     5.398000000000E-02  2.610000000000E-01  5.990000000000E-02
     28 F   6 C     5.398000000000E-02 -2.610000000000E-01 -4.401000000000E-01
     29 T   6 C     6.474000000000E-02  1.830000000000E-01 -1.464000000000E-01
     30 F   6 C     6.474000000000E-02 -1.830000000000E-01  3.536000000000E-01
     31 T   1 H     1.400000000000E-02  1.360000000000E-01 -2.412000000000E-01
     32 F   1 H     1.400000000000E-02 -1.360000000000E-01  2.588000000000E-01
     33 T   6 C     1.510300000000E-01  1.762000000000E-01 -2.089000000000E-01
     34 F   6 C     1.510300000000E-01 -1.762000000000E-01  2.911000000000E-01
     35 T   1 H     1.579000000000E-01  1.246000000000E-01 -3.458000000000E-01
     36 F   1 H     1.579000000000E-01 -1.246000000000E-01  1.542000000000E-01
     37 T   6 C     2.278400000000E-01  2.461000000000E-01 -6.750000000000E-02
     38 F   6 C     2.278400000000E-01 -2.461000000000E-01  4.325000000000E-01
     39 T   6 C     2.168300000000E-01  3.211000000000E-01  1.389000000000E-01
     40 F   6 C     2.168300000000E-01 -3.211000000000E-01 -3.611000000000E-01
     41 T   1 H     2.677000000000E-01  3.672000000000E-01  2.342000000000E-01
     42 F   1 H     2.677000000000E-01 -3.672000000000E-01 -2.658000000000E-01
     43 T   6 C     3.208400000000E-01  2.483000000000E-01 -1.306000000000E-01
     44 F   6 C     3.208400000000E-01 -2.483000000000E-01  3.694000000000E-01
     45 T   6 C     4.097900000000E-01  1.939000000000E-01 -4.135000000000E-01
     46 F   6 C     4.097900000000E-01 -1.939000000000E-01  8.650000000000E-02
     47 T   1 H     4.036000000000E-01  1.416000000000E-01  4.394000000000E-01
     48 F   1 H     4.036000000000E-01 -1.416000000000E-01 -6.060000000000E-02
     49 T   1 H     4.552000000000E-01  1.231000000000E-01 -3.159000000000E-01
     50 F   1 H     4.552000000000E-01 -1.231000000000E-01  1.841000000000E-01
     51 T   1 H     4.285000000000E-01  3.245000000000E-01 -4.165000000000E-01
     52 F   1 H     4.285000000000E-01 -3.245000000000E-01  8.350000000000E-02
     53 T   7 N    -3.120000000000E-02  2.632000000000E-01  1.364000000000E-01
     54 F   7 N    -3.120000000000E-02 -2.632000000000E-01 -3.636000000000E-01
     55 T   8 O    -4.506100000000E-01  2.105000000000E-01  2.645000000000E-01
     56 F   8 O    -4.506100000000E-01 -2.105000000000E-01 -2.355000000000E-01
     57 T   8 O    -1.292200000000E-01  1.609000000000E-01  4.340000000000E-01
     58 F   8 O    -1.292200000000E-01 -1.609000000000E-01 -6.600000000000E-02
     59 T   8 O     3.887600000000E-01  3.082000000000E-01 -1.020000000000E-02
     60 F   8 O     3.887600000000E-01 -3.082000000000E-01  4.898000000000E-01
     61 T   8 O     3.223500000000E-01  1.824000000000E-01 -3.343000000000E-01
     62 F   8 O     3.223500000000E-01 -1.824000000000E-01  1.657000000000E-01
     63 T   1 H    -7.400000000000E-02  1.880000000000E-01  3.600000000000E-01
     64 F   1 H    -7.400000000000E-02 -1.880000000000E-01 -1.400000000000E-01
     65 T   1 H    -4.910000000000E-01  2.510000000000E-01  1.560000000000E-01
     66 F   1 H    -4.910000000000E-01 -2.510000000000E-01 -3.440000000000E-01

 T = ATOM BELONGING TO THE ASYMMETRIC UNIT

 ****    2 SYMMOPS - TRANSLATORS IN FRACTIONAL UNITS
 **** MATRICES AND TRANSLATORS IN THE CRYSTALLOGRAPHIC REFERENCE FRAME
   V INV                    ROTATION MATRICES                   TRANSLATORS
   1   1  1.00  0.00  0.00  0.00  1.00  0.00  0.00  0.00  1.00  0.00  0.00  0.00
   2   2  1.00  0.00  0.00 -0.00 -1.00 -0.00  0.00  0.00  1.00  0.00 -0.00  0.50

 DIRECT LATTICE VECTORS CARTESIAN COMPONENTS (ANGSTROM)
          X                    Y                    Z
   0.147390000000E+02   0.902503458632E-15   0.000000000000E+00
   0.000000000000E+00   0.702710000000E+01   0.000000000000E+00
  -0.975564944193E+00   0.373266221146E-15   0.601733079111E+01


 CARTESIAN COORDINATES - PRIMITIVE CELL
 *******************************************************************************
 *      ATOM          X(ANGSTROM)         Y(ANGSTROM)         Z(ANGSTROM)
 *******************************************************************************
    1     6 C    -4.612370689880E+00  1.263472580000E+00  2.061537529035E+00
    2     6 C    -4.124588217784E+00 -1.263472580000E+00 -9.471278665210E-01
    3     1 H    -3.857324907581E+00  8.840091800000E-01 -3.135631075248E+00
    4     1 H    -4.345107379678E+00 -8.840091800000E-01 -1.269656796925E-01
    5     6 C    -3.285039066106E+00  1.448285310000E+00  1.713735809309E+00
    6     6 C    -2.797256594010E+00 -1.448285310000E+00 -1.294929586247E+00
    7     6 C    -3.978710014018E+00  2.330186360000E+00 -4.332478169601E-01
    8     6 C    -3.490927541922E+00 -2.330186360000E+00 -3.441913212516E+00
    9     1 H    -3.768581201314E+00  2.668892580000E+00 -1.273868928478E+00
   10     1 H    -4.256363673411E+00 -2.668892580000E+00  1.734796467078E+00
   11     6 C    -5.611575535556E+00  1.646449530000E+00  1.179998568137E+00
   12     6 C    -5.123793063460E+00 -1.646449530000E+00 -1.828666827419E+00
   13     6 C    -5.304310128198E+00  2.188238940000E+00 -7.521663488890E-02
   14     6 C    -4.816527656101E+00 -2.188238940000E+00 -3.083882030445E+00
   15     1 H    -5.982246764589E+00  2.448241640000E+00 -6.564907893103E-01
   16     1 H    -5.494464292492E+00 -2.448241640000E+00 -3.665156184866E+00
   17     6 C    -2.939471253398E+00  1.975317810000E+00  4.422738131467E-01
   18     6 C    -2.451688781302E+00 -1.975317810000E+00 -2.566391582409E+00
   19     6 C    -1.570469178338E+00  2.099697480000E+00  1.745025929422E-02
   20     6 C    -1.082686706242E+00 -2.099697480000E+00 -2.991215136262E+00
   21     1 H    -1.386956277925E+00  2.366024570000E+00 -8.544609723379E-01
   22     1 H    -1.874738750021E+00 -2.366024570000E+00  2.154204423218E+00
   23     6 C     1.733306932307E+00  2.300672540000E+00  1.219111218279E+00
   24     6 C     2.221089404403E+00 -2.300672540000E+00 -1.789554177277E+00
   25     1 H     1.503714197536E+00  2.642892310000E+00  2.052511532848E+00
   26     1 H     1.991496669632E+00 -2.642892310000E+00 -9.561538627077E-01
   27     6 C     7.371748798429E-01  1.834073100000E+00  3.604381143876E-01
   28     6 C     1.224957351939E+00 -1.834073100000E+00 -2.648227281168E+00
   29     6 C     1.097025567830E+00  1.285959300000E+00 -8.809372278188E-01
   30     6 C     6.092430957335E-01 -1.285959300000E+00  2.127728167737E+00
   31     1 H     4.416522645393E-01  9.556856000000E-01 -1.451380186816E+00
   32     1 H    -4.613020755707E-02 -9.556856000000E-01  1.557285208740E+00
   33     6 C     2.429826686842E+00  1.238175020000E+00 -1.257020402263E+00
   34     6 C     1.942044214746E+00 -1.238175020000E+00  1.751644993293E+00
   35     1 H     2.664638457702E+00  8.755766600000E-01 -2.080792987566E+00
   36     1 H     2.176855985605E+00 -8.755766600000E-01  9.278724079894E-01
   37     6 C     3.423984393733E+00  1.729369310000E+00 -4.061698284000E-01
   38     6 C     2.936201921637E+00 -1.729369310000E+00  2.602495567156E+00
   39     6 C     3.060351399252E+00  2.256401810000E+00  8.358072468854E-01
   40     6 C     3.548133871348E+00 -2.256401810000E+00 -2.172858148670E+00
   41     1 H     3.717152990070E+00  2.580351120000E+00  1.409258871278E+00
   42     1 H     4.204935462166E+00 -2.580351120000E+00 -1.599406524278E+00
   43     6 C     4.856269541712E+00  1.744828930000E+00 -7.858634013192E-01
   44     6 C     4.368487069615E+00 -1.744828930000E+00  2.222801994237E+00
   45     6 C     5.467725970231E+00  1.362554690000E+00  3.529164508987E+00
   46     6 C     5.955508442327E+00 -1.362554690000E+00  5.204991134312E-01
   47     1 H     5.519997163522E+00  9.950373600000E-01  2.644015149615E+00
   48     1 H     6.007779635618E+00 -9.950373600000E-01 -3.646502459414E-01
   49     1 H     7.017373765870E+00  8.650360100000E-01 -1.900874796912E+00
   50     1 H     6.529591293774E+00 -8.650360100000E-01  1.107790598644E+00
   51     1 H     5.746419355064E+00  2.280293950000E+00  3.511112516614E+00
   52     1 H     6.234201827160E+00 -2.280293950000E+00  5.024471210578E-01
   53     7 N    -5.929238583879E-01  1.849532720000E+00  8.207639199077E-01
   54     7 N    -1.051413862915E-01 -1.849532720000E+00 -2.187901475648E+00
   55     8 O    -6.899577717739E+00  1.479204550000E+00  1.591583994249E+00
   56     8 O    -6.411795245643E+00 -1.479204550000E+00 -1.417081401307E+00
   57     8 O    -2.327968765780E+00  1.130660390000E+00  2.611521563343E+00
   58     8 O    -1.840186293683E+00 -1.130660390000E+00 -3.971438322134E-01
   59     8 O     5.739884402431E+00  2.165752220000E+00 -6.137677406934E-02
   60     8 O     5.252101930334E+00 -2.165752220000E+00  2.947288621487E+00
   61     8 O     5.077248010844E+00  1.281743040000E+00 -2.011593683469E+00
   62     8 O     4.589465538747E+00 -1.281743040000E+00  9.970717120872E-01
   63     1 H    -1.441889379909E+00  1.321094800000E+00  2.166239084800E+00
   64     1 H    -9.541069078130E-01 -1.321094800000E+00 -8.424263107557E-01
   65     1 H     7.349962868706E+00  1.763802100000E+00  9.387036034134E-01
   66     1 H    -6.901254659198E+00 -1.763802100000E+00 -2.069961792142E+00

 *******************************************************************************
 LOCAL ATOMIC FUNCTIONS BASIS SET
 *******************************************************************************
   ATOM   X(AU)   Y(AU)   Z(AU)  N. TYPE  EXPONENT  S COEF   P COEF   D/F/G COEF
 *******************************************************************************
   1 C   -8.716   2.388   3.896
                                  1 S  
                                         3.048E+03 1.835E-03 0.000E+00 0.000E+00
                                         4.574E+02 1.404E-02 0.000E+00 0.000E+00
                                         1.039E+02 6.884E-02 0.000E+00 0.000E+00
                                         2.921E+01 2.322E-01 0.000E+00 0.000E+00
                                         9.287E+00 4.679E-01 0.000E+00 0.000E+00
                                         3.164E+00 3.623E-01 0.000E+00 0.000E+00
                           2-     5 SP 
                                         7.868E+00-1.193E-01 6.900E-02 0.000E+00
                                         1.881E+00-1.609E-01 3.164E-01 0.000E+00
                                         5.442E-01 1.143E+00 7.443E-01 0.000E+00
                           6-     9 SP 
                                         1.687E-01 1.000E+00 1.000E+00 0.000E+00
                          10-    14 D  
                                         8.000E-01 0.000E+00 0.000E+00 1.000E+00
   2 C   -7.794  -2.388  -1.790
   3 H   -7.289   1.671  -5.925
                                 29 S  
                                         1.873E+01 3.349E-02 0.000E+00 0.000E+00
                                         2.825E+00 2.347E-01 0.000E+00 0.000E+00
                                         6.401E-01 8.138E-01 0.000E+00 0.000E+00
                                 30 S  
                                         1.613E-01 1.000E+00 0.000E+00 0.000E+00
   4 H   -8.211  -1.671  -0.240
   5 C   -6.208   2.737   3.238
   6 C   -5.286  -2.737  -2.447
   7 C   -7.519   4.403  -0.819
   8 C   -6.597  -4.403  -6.504
   9 H   -7.122   5.043  -2.407
  10 H   -8.043  -5.043   3.278
  11 C  -10.604   3.111   2.230
  12 C   -9.683  -3.111  -3.456
  13 C  -10.024   4.135  -0.142
  14 C   -9.102  -4.135  -5.828
  15 H  -11.305   4.627  -1.241
  16 H  -10.383  -4.627  -6.926
  17 C   -5.555   3.733   0.836
  18 C   -4.633  -3.733  -4.850
  19 C   -2.968   3.968   0.033
  20 C   -2.046  -3.968  -5.653
  21 H   -2.621   4.471  -1.615
  22 H   -3.543  -4.471   4.071
  23 C    3.275   4.348   2.304
  24 C    4.197  -4.348  -3.382
  25 H    2.842   4.994   3.879
  26 H    3.763  -4.994  -1.807
  27 C    1.393   3.466   0.681
  28 C    2.315  -3.466  -5.004
  29 C    2.073   2.430  -1.665
  30 C    1.151  -2.430   4.021
  31 H    0.835   1.806  -2.743
  32 H   -0.087  -1.806   2.943
  33 C    4.592   2.340  -2.375
  34 C    3.670  -2.340   3.310
  35 H    5.035   1.655  -3.932
  36 H    4.114  -1.655   1.753
  37 C    6.470   3.268  -0.768
  38 C    5.549  -3.268   4.918
  39 C    5.783   4.264   1.579
  40 C    6.705  -4.264  -4.106
  41 H    7.024   4.876   2.663
  42 H    7.946  -4.876  -3.022
  43 C    9.177   3.297  -1.485
  44 C    8.255  -3.297   4.200
  45 C   10.333   2.575   6.669
  46 C   11.254  -2.575   0.984
  47 H   10.431   1.880   4.996
  48 H   11.353  -1.880  -0.689
  49 H   13.261   1.635  -3.592
  50 H   12.339  -1.635   2.093
  51 H   10.859   4.309   6.635
  52 H   11.781  -4.309   0.949
  53 N   -1.120   3.495   1.551
                                465 S  
                                         4.174E+03 1.835E-03 0.000E+00 0.000E+00
                                         6.275E+02 1.399E-02 0.000E+00 0.000E+00
                                         1.429E+02 6.859E-02 0.000E+00 0.000E+00
                                         4.023E+01 2.322E-01 0.000E+00 0.000E+00
                                         1.282E+01 4.691E-01 0.000E+00 0.000E+00
                                         4.390E+00 3.605E-01 0.000E+00 0.000E+00
                         466-   469 SP 
                                         1.163E+01-1.150E-01 6.758E-02 0.000E+00
                                         2.716E+00-1.691E-01 3.239E-01 0.000E+00
                                         7.722E-01 1.146E+00 7.409E-01 0.000E+00
                         470-   473 SP 
                                         2.120E-01 1.000E+00 1.000E+00 0.000E+00
                         474-   478 D  
                                         8.000E-01 0.000E+00 0.000E+00 1.000E+00
  54 N   -0.199  -3.495  -4.135
  55 O  -13.038   2.795   3.008
                                493 S  
                                         5.485E+03 1.831E-03 0.000E+00 0.000E+00
                                         8.252E+02 1.395E-02 0.000E+00 0.000E+00
                                         1.880E+02 6.845E-02 0.000E+00 0.000E+00
                                         5.296E+01 2.327E-01 0.000E+00 0.000E+00
                                         1.690E+01 4.702E-01 0.000E+00 0.000E+00
                                         5.800E+00 3.585E-01 0.000E+00 0.000E+00
                         494-   497 SP 
                                         1.554E+01-1.108E-01 7.087E-02 0.000E+00
                                         3.600E+00-1.480E-01 3.398E-01 0.000E+00
                                         1.014E+00 1.131E+00 7.272E-01 0.000E+00
                         498-   501 SP 
                                         2.700E-01 1.000E+00 1.000E+00 0.000E+00
                         502-   506 D  
                                         8.000E-01 0.000E+00 0.000E+00 1.000E+00
  56 O  -12.117  -2.795  -2.678
  57 O   -4.399   2.137   4.935
  58 O   -3.477  -2.137  -0.750
  59 O   10.847   4.093  -0.116
  60 O    9.925  -4.093   5.570
  61 O    9.595   2.422  -3.801
  62 O    8.673  -2.422   1.884
  63 H   -2.725   2.497   4.094
  64 H   -1.803  -2.497  -1.592
  65 H   13.889   3.333   1.774
  66 H  -13.041  -3.333  -3.912
 INFORMATION **** SET_MPP **** PCRYSTAL CALCULATION
 INFORMATION **** READM2 **** NEW DEFAULT: FOCK/KS MATRIX MIXING SET TO 30 %
 INFORMATION **** READM2 **** NEW DEFAULT: FULL DIRECT SCF MODE
 INFORMATION **** READM2 **** NEW DEFAULT: COULOMB BIPOLAR BUFFER SET TO 32 Mb
 INFORMATION **** READM2 **** NEW DEFAULT: EXCHANGE BIPOLAR BUFFER SET TO 32 Mb

 *******************************************************************************
 NEW DEFAULT: DFT INTEGRATION GRID INCREASED TO XLGRID
 NEW DEFAULT: DIIS ACCELERATOR ACTIVE
 USE KEYWORD NODIIS TO TURN IT OFF
 *******************************************************************************

 INFORMATION **** DFTD3_INPUT **** PERFORM LATEST DISPERSION CORRECTION DFT-D3(BJ) WITH AUTOMATIC PARAMETER SETUP
 PLEASE CITE:
 (1) DFT-D3 Reference
  S. Grimme, J. Antony, S. Ehrlich, and H. Krieg, J. Chem. Phys. 132 (2010), 154104
 (2) BJ-Damping Reference
  S. Grimme, S. Ehrlich, and L. Goerigk, J. Comput. Chem. 32 (2011), 1456-1465
 (3) General DFT-D Review
  S. Grimme, A. Hansen, J. G. Brandenburg, and C. Bannwarth,
  Chem. Rev. 116 (2016), 5105-5154

 WARNING **** RDDFTP **** wB97-X ACTIVE
 RANGE SEPARATION - OMEGA:   0.250000000000000     
 INFORMATION **** TOLINTEG **** COULOMB AND EXCHANGE SERIES TOLERANCES MODIFIED
 *******************************************************************************
 N. OF ATOMS PER CELL        66  COULOMB OVERLAP TOL         (T1) 10**   -7
 NUMBER OF SHELLS           212  COULOMB PENETRATION TOL     (T2) 10**   -7
 NUMBER OF AO               612  EXCHANGE OVERLAP TOL        (T3) 10**   -7
 N. OF ELECTRONS PER CELL   284  EXCHANGE PSEUDO OVP (F(G))  (T4) 10**  -18
 CORE ELECTRONS PER CELL     80  EXCHANGE PSEUDO OVP (P(G))  (T5) 10**  -40
 N. OF SYMMETRY OPERATORS     2  POLE ORDER IN MONO ZONE                  4
 *******************************************************************************
 TYPE OF CALCULATION :  RESTRICTED CLOSED SHELL
 KOHN-SHAM HAMILTONIAN

 (EXCHANGE)[CORRELATION] FUNCTIONAL:(wB97-X (SR-B97/LR+SR HF))[wB97-X]


 HYBRID EXCHANGE - PERCENTAGE OF FOCK EXCHANGE   100.0000

 CAPPA:IS1  4;IS2  4;IS3  4; K PTS MONK NET  30; SYMMOPS:K SPACE   4;G SPACE   2

 *******************************************************************************
 MAX NUMBER OF SCF CYCLES      50  CONVERGENCE ON DELTAP        10**-16
 WEIGHT OF F(I) IN F(I+1)      30% CONVERGENCE ON ENERGY        10**- 7
 SHRINK. FACT.(MONKH.)    4  4  4  NUMBER OF K POINTS IN THE IBZ     30
 SHRINKING FACTOR(GILAT NET)    4  NUMBER OF K POINTS(GILAT NET)     30
 *******************************************************************************
 *** K POINTS COORDINATES (OBLIQUE COORDINATES IN UNITS OF IS =  4)
   1-R(  0  0  0)   2-C(  1  0  0)   3-R(  2  0  0)   4-C(  0  1  0)
   5-C(  1  1  0)   6-C(  2  1  0)   7-R(  0  2  0)   8-C(  1  2  0)
   9-R(  2  2  0)  10-C(  0  0  1)  11-C(  1  0  1)  12-C(  2  0  1)
  13-C(  3  0  1)  14-C(  0  1  1)  15-C(  1  1  1)  16-C(  2  1  1)
  17-C(  3  1  1)  18-C(  0  2  1)  19-C(  1  2  1)  20-C(  2  2  1)
  21-C(  3  2  1)  22-R(  0  0  2)  23-C(  1  0  2)  24-R(  2  0  2)
  25-C(  0  1  2)  26-C(  1  1  2)  27-C(  2  1  2)  28-R(  0  2  2)
  29-C(  1  2  2)  30-R(  2  2  2)

 DIRECT LATTICE VECTORS COMPON. (A.U.)     RECIP. LATTICE VECTORS COMPON. (A.U.) 
        X            Y            Z              X            Y            Z
   27.8526735    0.0000000    0.0000000      0.2255864    0.0000000    0.0365734
    0.0000000   13.2792945    0.0000000     -0.0000000    0.4731566   -0.0000000
   -1.8435506    0.0000000   11.3711073      0.0000000    0.0000000    0.5525570

 DISK SPACE FOR EIGENVECTORS (FTN 10)    19476288 REALS

 SYMMETRY ADAPTION OF THE BLOCH FUNCTIONS ENABLED
 TTTTTTTTTTTTTTTTTTTTTTTTTTTTTT gordsh1     TELAPSE        3.58 TCPU        1.76

 MATRIX SIZE: P(G) 4315540, F(G)  651386, P(G) IRR 1093283, F(G) IRR  330146
 MAX G-VECTOR INDEX FOR 1- AND 2-ELECTRON INTEGRALS 197

 TTTTTTTTTTTTTTTTTTTTTTTTTTTTTT INPUT       TELAPSE        3.61 TCPU        1.79

 NEIGHBORS OF THE NON-EQUIVALENT ATOMS

 N = NUMBER OF NEIGHBORS AT DISTANCE R
    ATOM  N     R/ANG      R/AU   NEIGHBORS (ATOM LABELS AND CELL INDICES)
   1 C    1     0.9302     1.7578    3 H    0 0 1
   1 C    1     1.3845     2.6164    5 C    0 0 0
   1 C    1     1.3864     2.6200   11 C    0 0 0
   1 C    1     2.3449     4.4313   55 O    0 0 0
   1 C    1     2.3534     4.4473   57 O    0 0 0
   1 C    1     2.4289     4.5900   13 C    0 0 0

   3 H    1     0.9302     1.7578    1 C    0 0-1
   3 H    1     2.0195     3.8163    5 C    0 0-1
   3 H    1     2.0208     3.8187   11 C    0 0-1
   3 H    1     2.5080     4.7394   55 O    0 0-1
   3 H    1     2.5315     4.7838   57 O    0 0-1
   3 H    1     2.5807     4.8768    9 H    0 0 0

   5 C    1     1.3501     2.5514   57 O    0 0 0
   5 C    1     1.3845     2.6164    1 C    0 0 0
   5 C    1     1.4191     2.6817   17 C    0 0 0
   5 C    1     1.9021     3.5945   63 H    0 0 0
   5 C    1     2.0195     3.8163    3 H    0 0 1
   5 C    1     2.3952     4.5262   11 C    0 0 0

   7 C    1     0.9303     1.7581    9 H    0 0 0
   7 C    1     1.3804     2.6086   13 C    0 0 0
   7 C    1     1.4045     2.6540   17 C    0 0 0
   7 C    1     2.0194     3.8161   15 H    0 0 0
   7 C    1     2.3951     4.5260   11 C    0 0 0
   7 C    1     2.4225     4.5778    5 C    0 0 0

   9 H    1     0.9303     1.7581    7 C    0 0 0
   9 H    1     2.0066     3.7918   13 C    0 0 0
   9 H    1     2.0282     3.8328   17 C    0 0 0
   9 H    1     2.3087     4.3628   15 H    0 0 0
   9 H    1     2.4372     4.6056   21 H    0 0 0
   9 H    1     2.5807     4.8768    3 H    0 0 0

  11 C    1     1.3625     2.5747   55 O    0 0 0
  11 C    1     1.3864     2.6200    1 C    0 0 0
  11 C    1     1.4013     2.6480   13 C    0 0 0
  11 C    1     1.7976     3.3970   65 H   -1 0 0
  11 C    1     2.0208     3.8187    3 H    0 0 1
  11 C    1     2.0379     3.8510   15 H    0 0 0

  13 C    1     0.9301     1.7576   15 H    0 0 0
  13 C    1     1.3804     2.6086    7 C    0 0 0
  13 C    1     1.4013     2.6480   11 C    0 0 0
  13 C    1     2.0066     3.7918    9 H    0 0 0
  13 C    1     2.3567     4.4536   65 H   -1 0 0
  13 C    1     2.4137     4.5612   55 O    0 0 0

  15 H    1     0.9301     1.7576   13 C    0 0 0
  15 H    1     2.0194     3.8161    7 C    0 0 0
  15 H    1     2.0379     3.8510   11 C    0 0 0
  15 H    1     2.2343     4.2222   65 H   -1 0 0
  15 H    1     2.3087     4.3628    9 H    0 0 0
  15 H    1     2.6143     4.9402   55 O    0 0 0

  17 C    1     1.4045     2.6540    7 C    0 0 0
  17 C    1     1.4191     2.6817    5 C    0 0 0
  17 C    1     1.4388     2.7189   19 C    0 0 0
  17 C    1     2.0282     3.8328    9 H    0 0 0
  17 C    1     2.0602     3.8932   21 H    0 0 0
  17 C    1     2.3755     4.4890   63 H    0 0 0

  19 C    1     0.9300     1.7574   21 H    0 0 0
  19 C    1     1.2898     2.4373   53 N    0 0 0
  19 C    1     1.4388     2.7189   17 C    0 0 0
  19 C    1     2.2891     4.3258   63 H    0 0 0
  19 C    1     2.3481     4.4372   27 C    0 0 0
  19 C    1     2.4609     4.6504    7 C    0 0 0

  21 H    1     0.9300     1.7574   19 C    0 0 0
  21 H    1     1.9245     3.6367   53 N    0 0 0
  21 H    1     2.0602     3.8932   17 C    0 0 0
  21 H    1     2.3852     4.5074   31 H    0 0 0
  21 H    1     2.4372     4.6056    9 H    0 0 0
  21 H    1     2.5042     4.7322   27 C    0 0 0

  23 C    1     0.9297     1.7569   25 H    0 0 0
  23 C    1     1.3820     2.6116   39 C    0 0 0
  23 C    1     1.3955     2.6370   27 C    0 0 0
  23 C    1     2.0125     3.8030   41 H    0 0 0
  23 C    1     2.4028     4.5407   53 N    0 0 0
  23 C    1     2.4138     4.5614   37 C    0 0 0

  25 H    1     0.9297     1.7569   23 C    0 0 0
  25 H    1     2.0132     3.8043   39 C    0 0 0
  25 H    1     2.0261     3.8287   27 C    0 0 0
  25 H    1     2.3059     4.3574   41 H    0 0 0
  25 H    1     2.5578     4.8336   53 N    0 0 0
  25 H    1     2.5898     4.8941   35 H    0 0 1

  27 C    1     1.3955     2.6370   23 C    0 0 0
  27 C    1     1.4039     2.6530   29 C    0 0 0
  27 C    1     1.4076     2.6600   53 N    0 0 0
  27 C    1     2.0261     3.8287   25 H    0 0 0
  27 C    1     2.0351     3.8458   31 H    0 0 0
  27 C    1     2.3481     4.4372   19 C    0 0 0

  29 C    1     0.9295     1.7565   31 H    0 0 0
  29 C    1     1.3857     2.6185   33 C    0 0 0
  29 C    1     1.4039     2.6530   27 C    0 0 0
  29 C    1     2.0163     3.8103   35 H    0 0 0
  29 C    1     2.4159     4.5655   37 C    0 0 0
  29 C    1     2.4176     4.5686   23 C    0 0 0

  31 H    1     0.9295     1.7565   29 C    0 0 0
  31 H    1     2.0175     3.8126   33 C    0 0 0
  31 H    1     2.0351     3.8458   27 C    0 0 0
  31 H    1     2.3118     4.3686   35 H    0 0 0
  31 H    1     2.3852     4.5074   21 H    0 0 0
  31 H    1     2.5916     4.8975   63 H    0 0-1

  33 C    1     0.9302     1.7578   35 H    0 0 0
  33 C    1     1.3857     2.6185   29 C    0 0 0
  33 C    1     1.3977     2.6413   37 C    0 0 0
  33 C    1     2.0175     3.8126   31 H    0 0 0
  33 C    1     2.4113     4.5567   39 C    0 0 0
  33 C    1     2.4159     4.5653   27 C    0 0 0

  35 H    1     0.9302     1.7578   33 C    0 0 0
  35 H    1     2.0163     3.8103   29 C    0 0 0
  35 H    1     2.0273     3.8310   37 C    0 0 0
  35 H    1     2.3118     4.3686   31 H    0 0 0
  35 H    1     2.4475     4.6252   61 O    0 0 0
  35 H    1     2.5898     4.8941   25 H    0 0-1

  37 C    1     1.3973     2.6405   39 C    0 0 0
  37 C    1     1.3977     2.6413   33 C    0 0 0
  37 C    1     1.4818     2.8003   43 C    0 0 0
  37 C    1     2.0263     3.8292   41 H    0 0 0
  37 C    1     2.0273     3.8310   35 H    0 0 0
  37 C    1     2.3476     4.4362   61 O    0 0 0

  39 C    1     0.9301     1.7577   41 H    0 0 0
  39 C    1     1.3820     2.6116   23 C    0 0 0
  39 C    1     1.3973     2.6405   37 C    0 0 0
  39 C    1     2.0132     3.8043   25 H    0 0 0
  39 C    1     2.4086     4.5516   27 C    0 0 0
  39 C    1     2.4113     4.5567   33 C    0 0 0

  41 H    1     0.9301     1.7577   39 C    0 0 0
  41 H    1     2.0125     3.8030   23 C    0 0 0
  41 H    1     2.0263     3.8292   37 C    0 0 0
  41 H    1     2.3059     4.3574   25 H    0 0 0
  41 H    1     2.5350     4.7904   59 O    0 0 0
  41 H    1     2.6104     4.9330   43 C    0 0 0

  43 C    1     1.2177     2.3011   59 O    0 0 0
  43 C    1     1.3288     2.5111   61 O    0 0 0
  43 C    1     1.4818     2.8003   37 C    0 0 0
  43 C    1     2.3585     4.4570   45 C    0 0-1
  43 C    1     2.4732     4.6737   39 C    0 0 0
  43 C    1     2.5232     4.7681   33 C    0 0 0

  45 C    1     0.9593     1.8128   51 H    0 0 0
  45 C    1     0.9598     1.8138   47 H    0 0 0
  45 C    1     0.9602     1.8145   49 H    0 0 1
  45 C    1     1.4490     2.7383   61 O    0 0 1
  45 C    1     2.3585     4.4570   43 C    0 0 1
  45 C    1     2.6513     5.0102   59 O    0 0 1

  47 H    1     0.9598     1.8138   45 C    0 0 0
  47 H    1     1.5668     2.9609   51 H    0 0 0
  47 H    1     1.5676     2.9623   49 H    0 0 1
  47 H    1     1.9870     3.7549   61 O    0 0 1
  47 H    1     2.5926     4.8994   55 O    1 0 0
  47 H    1     2.6152     4.9420   50 H    0 0 0

  49 H    1     0.9602     1.8145   45 C    0 0-1
  49 H    1     1.5674     2.9619   51 H    0 0-1
  49 H    1     1.5676     2.9623   47 H    0 0-1
  49 H    1     1.9875     3.7558   61 O    0 0 0
  49 H    1     2.5861     4.8869   43 C    0 0 0
  49 H    1     2.5899     4.8942   59 O    0 0 0

  51 H    1     0.9593     1.8128   45 C    0 0 0
  51 H    1     1.5668     2.9609   47 H    0 0 0
  51 H    1     1.5674     2.9619   49 H    0 0 1
  51 H    1     1.9867     3.7543   61 O    0 0 1
  51 H    1     2.5937     4.9014   43 C    0 0 1
  51 H    1     2.6372     4.9836   59 O    0 0 1

  53 N    1     1.2898     2.4373   19 C    0 0 0
  53 N    1     1.4076     2.6600   27 C    0 0 0
  53 N    1     1.6764     3.1679   63 H    0 0 0
  53 N    1     1.9245     3.6367   21 H    0 0 0
  53 N    1     2.3802     4.4979   17 C    0 0 0
  53 N    1     2.4028     4.5407   23 C    0 0 0

  55 O    1     0.8642     1.6331   65 H   -1 0 0
  55 O    1     1.3625     2.5747   11 C    0 0 0
  55 O    1     2.3449     4.4313    1 C    0 0 0
  55 O    1     2.4137     4.5612   13 C    0 0 0
  55 O    1     2.5080     4.7394    3 H    0 0 1
  55 O    1     2.5926     4.8994   47 H   -1 0 0

  57 O    1     1.0098     1.9082   63 H    0 0 0
  57 O    1     1.3501     2.5514    5 C    0 0 0
  57 O    1     2.3534     4.4473    1 C    0 0 0
  57 O    1     2.4069     4.5483   17 C    0 0 0
  57 O    1     2.5315     4.7838    3 H    0 0 1
  57 O    1     2.5950     4.9038   53 N    0 0 0

  59 O    1     1.2177     2.3011   43 C    0 0 0
  59 O    1     1.9375     3.6614   65 H    0 0 0
  59 O    1     2.2414     4.2356   61 O    0 0 0
  59 O    1     2.3817     4.5008   37 C    0 0 0
  59 O    1     2.5350     4.7904   41 H    0 0 0
  59 O    1     2.5899     4.8942   49 H    0 0 0

  61 O    1     1.3288     2.5111   43 C    0 0 0
  61 O    1     1.4490     2.7383   45 C    0 0-1
  61 O    1     1.9867     3.7543   51 H    0 0-1
  61 O    1     1.9870     3.7549   47 H    0 0-1
  61 O    1     1.9875     3.7558   49 H    0 0 0
  61 O    1     2.2414     4.2356   59 O    0 0 0

  63 H    1     1.0098     1.9082   57 O    0 0 0
  63 H    1     1.6764     3.1679   53 N    0 0 0
  63 H    1     1.9021     3.5945    5 C    0 0 0
  63 H    1     2.2891     4.3258   19 C    0 0 0
  63 H    1     2.3755     4.4890   17 C    0 0 0
  63 H    1     2.5916     4.8975   31 H    0 0 1

  65 H    1     0.8642     1.6331   55 O    1 0 0
  65 H    1     1.7976     3.3970   11 C    1 0 0
  65 H    1     1.9375     3.6614   59 O    0 0 0
  65 H    1     2.2343     4.2222   15 H    1 0 0
  65 H    1     2.3567     4.4536   13 C    1 0 0
  65 H    1     2.6168     4.9451   47 H    0 0 0


 SYMMETRY ALLOWED ELASTIC DISTORTION 1
  0.5773503  0.0000000  0.0000000
  0.0000000  0.5773503  0.0000000
  0.0000000  0.0000000  0.5773503

 SYMMETRY ALLOWED ELASTIC DISTORTION 2
  0.8164966  0.0000000  0.0000000
  0.0000000 -0.4082483  0.0000000
  0.0000000  0.0000000 -0.4082483

 SYMMETRY ALLOWED ELASTIC DISTORTION 3
  0.0000000  0.0000000  0.0000000
  0.0000000  0.7071068  0.0000000
  0.0000000  0.0000000 -0.7071068

 SYMMETRY ALLOWED ELASTIC DISTORTION 4
 -0.0000000  0.0000000  0.7071068
  0.0000000 -0.0000000  0.0000000
  0.7071068  0.0000000  0.0000000

 SYMMETRY ALLOWED INTERNAL DEGREE(S) OF FREEDOM:  97
 TTTTTTTTTTTTTTTTTTTTTTTTTTTTTT SYMM        TELAPSE        3.67 TCPU        1.85
 TTTTTTTTTTTTTTTTTTTTTTTTTTTTTT INT_SCREEN  TELAPSE        3.70 TCPU        1.88

 *******************************************************************************
 *                             OPTIMIZATION STARTS                             *
 *******************************************************************************
 RECLASIFICATION OF INDICES FOR INTEGRAL CALC ACCORDING TO DIFFERENT CRITERIA:
           FIXDELTE                  FIXDELTX              FIXDELTN
           1.0000000               0.80000000                101
 DEFAULT MAX NUM OF POINTS  202
 *******************************************************************************

 *******************************************************************************
 COORDINATE AND CELL OPTIMIZATION - POINT    1

 DFT PARAMETERS

     ATOM       ELECTRONS   NET CHARGE   R(ANGSTROM)
   1   6  C       6.0000      0.0000     0.77000000
   3   1  H       1.0000      0.0000     1.11000000
  53   7  N       7.0000      0.0000     0.74000000
  55   8  O       8.0000      0.0000     0.74000000

 SIZE OF GRID=     850748
 TTTTTTTTTTTTTTTTTTTTTTTTTTTTTT MAKE_GRID2  TELAPSE        6.95 TCPU        5.11
 BECKE WEIGHT FUNCTION
 RADSAFE =     2.00
 TOLERANCES - DENSITY:10**- 6; POTENTIAL:10**- 9; GRID WGT:10**-14

 RADIAL INTEGRATION  - INTERVALS (POINTS,UPPER LIMIT):            1( 75,  4.0*R)

 ANGULAR INTEGRATION - INTERVALS (ACCURACY LEVEL [N. POINTS] UPPER LIMIT):
  1(  4[  86]   0.2)  2(  8[ 194]   0.5)  3( 12[ 350]   0.9)  4( 16[ 974]   3.5)
  5( 12[ 350]9999.0)
 TTTTTTTTTTTTTTTTTTTTTTTTTTTTTT INT_CALC    TELAPSE        6.98 TCPU        5.14

 *******************************************************************************
 ANIL4AENOL opt                                                                  
 CRYSTAL - SCF - TYPE OF CALCULATION :  RESTRICTED CLOSED SHELL
 *******************************************************************************

 CAPPA:IS1  4;IS2  4;IS3  4; K PTS MONK NET  30; SYMMOPS:K SPACE   4;G SPACE   2

 TTTTTTTTTTTTTTTTTTTTTTTTTTTTTT SDIK        TELAPSE        7.42 TCPU        5.57

 AAAAAAAAAAAAAAAAAAAAAAAAAAAAAAAAAAAAAAAAAAAAAAAAAAAAAAAAAAAAAAAAAAAAAAAAAAAAAAA
         ATOMIC WAVEFUNCTION(S)


 NUCLEAR CHARGE  6.0  SYMMETRY SPECIES            S    P
 N. ELECTRONS    6.0  NUMBER OF PRIMITIVE GTOS   10    4
                      NUMBER OF CONTRACTED GTOS   3    2
                      NUMBER OF CLOSED SHELLS     2    0
                      OPEN SHELL OCCUPATION       0    2

  ZNUC  SCFIT    TOTAL HF ENERGY   KINETIC ENERGY   VIRIAL THEOREM ACCURACY
   6.0     9    -3.767686562E+01  3.769050028E+01 -1.999638247E+00  3.3E-06

 NUCLEAR CHARGE  1.0  SYMMETRY SPECIES            S
 N. ELECTRONS    1.0  NUMBER OF PRIMITIVE GTOS    4
                      NUMBER OF CONTRACTED GTOS   2
                      NUMBER OF CLOSED SHELLS     0
                      OPEN SHELL OCCUPATION       1

  ZNUC  SCFIT    TOTAL HF ENERGY   KINETIC ENERGY   VIRIAL THEOREM ACCURACY
   1.0     1    -4.982329092E-01  5.098666671E-01 -1.977182745E+00  0.0E+00

 NUCLEAR CHARGE  7.0  SYMMETRY SPECIES            S    P
 N. ELECTRONS    7.0  NUMBER OF PRIMITIVE GTOS   10    4
                      NUMBER OF CONTRACTED GTOS   3    2
                      NUMBER OF CLOSED SHELLS     2    0
                      OPEN SHELL OCCUPATION       0    3

  ZNUC  SCFIT    TOTAL HF ENERGY   KINETIC ENERGY   VIRIAL THEOREM ACCURACY
   7.0     9    -5.438205111E+01  5.431249345E+01 -2.001280694E+00  1.7E-06

 NUCLEAR CHARGE  8.0  SYMMETRY SPECIES            S    P
 N. ELECTRONS    8.0  NUMBER OF PRIMITIVE GTOS   10    4
                      NUMBER OF CONTRACTED GTOS   3    2
                      NUMBER OF CLOSED SHELLS     2    0
                      OPEN SHELL OCCUPATION       0    4

  ZNUC  SCFIT    TOTAL HF ENERGY   KINETIC ENERGY   VIRIAL THEOREM ACCURACY
   8.0    12    -7.477688629E+01  7.468137146E+01 -2.001278965E+00  3.5E-06

 AAAAAAAAAAAAAAAAAAAAAAAAAAAAAAAAAAAAAAAAAAAAAAAAAAAAAAAAAAAAAAAAAAAAAAAAAAAAAAA

 CHARGE NORMALIZATION FACTOR   1.00000000
 TOTAL ATOMIC CHARGES:
   6.0000000   6.0000000   1.0000000   1.0000000   6.0000000   6.0000000
   6.0000000   6.0000000   1.0000000   1.0000000   6.0000000   6.0000000
   6.0000000   6.0000000   1.0000000   1.0000000   6.0000000   6.0000000
   6.0000000   6.0000000   1.0000000   1.0000000   6.0000000   6.0000000
   1.0000000   1.0000000   6.0000000   6.0000000   6.0000000   6.0000000
   1.0000000   1.0000000   6.0000000   6.0000000   1.0000000   1.0000000
   6.0000000   6.0000000   6.0000000   6.0000000   1.0000000   1.0000000
   6.0000000   6.0000000   6.0000000   6.0000000   1.0000000   1.0000000
   1.0000000   1.0000000   1.0000000   1.0000000   7.0000000   7.0000000
   8.0000000   8.0000000   8.0000000   8.0000000   8.0000000   8.0000000
   8.0000000   8.0000000   1.0000000   1.0000000   1.0000000   1.0000000
 TTTTTTTTTTTTTTTTTTTTTTTTTTTTTT MOQGAD      TELAPSE        7.47 TCPU        5.62
 TTTTTTTTTTTTTTTTTTTTTTTTTTTTTT SHELLXN     TELAPSE       30.40 TCPU       28.34
 TTTTTTTTTTTTTTTTTTTTTTTTTTTTTT MONMO3      TELAPSE       30.47 TCPU       28.42
 NUMERICALLY INTEGRATED DENSITY    283.9999369171
 TTTTTTTTTTTTTTTTTTTTTTTTTTTTTT NUMDFT      TELAPSE       30.75 TCPU       28.69
 CYC   0 ETOT(AU) -1.884284146155E+03 DETOT -1.88E+03 tst  0.00E+00 PX  1.00E+00
 TTTTTTTTTTTTTTTTTTTTTTTTTTTTTT DIIS        TELAPSE       30.82 TCPU       28.77
 TTTTTTTTTTTTTTTTTTTTTTTTTTTTTT FDIK        TELAPSE       33.04 TCPU       30.96
 INSULATING STATE
 TOP OF VALENCE BANDS -    BAND    142; K    7; EIG -2.7093802E-01 AU
 TOP OF VALENCE BANDS -    BAND    142; K    1; EIG -2.7227356E-01 AU
 BOTTOM OF VIRTUAL BANDS - BAND    143; K    3; EIG -1.3286534E-01 AU
 INDIRECT ENERGY BAND GAP:   3.7572 eV
 BOTTOM OF VIRTUAL BANDS - BAND    143; K    1; EIG -1.3262719E-01 AU
 TTTTTTTTTTTTTTTTTTTTTTTTTTTTTT PDIG        TELAPSE       33.31 TCPU       31.23
 CHARGE NORMALIZATION FACTOR   1.00000000
 TOTAL ATOMIC CHARGES:
   6.4203457   6.4203457   0.8702831   0.8702831   5.4440185   5.4440185
   6.1699912   6.1699912   0.8693085   0.8693085   5.4051850   5.4051850
   6.3322903   6.3322903   0.8583582   0.8583582   5.9944447   5.9944447
   5.8045784   5.8045784   0.8641817   0.8641817   6.2375111   6.2375111
   0.8740068   0.8740068   5.6063747   5.6063747   6.2281243   6.2281243
   0.8635372   0.8635372   6.1793968   6.1793968   0.8723064   0.8723064
   5.9263448   5.9263448   6.1948509   6.1948509   0.8646158   0.8646158
   5.0163762   5.0163762   6.3944321   6.3944321   0.7771538   0.7771538
   0.7842350   0.7842350   0.7792693   0.7792693   7.5608101   7.5608101
   8.7467227   8.7467227   8.7793633   8.7793633   8.7991865   8.7991865
   8.4632704   8.4632704   0.5111337   0.5111337   0.5079928   0.5079928
 TTTTTTTTTTTTTTTTTTTTTTTTTTTTTT MOQGAD      TELAPSE       33.31 TCPU       31.23
 TTTTTTTTTTTTTTTTTTTTTTTTTTTTTT SHELLXN     TELAPSE       56.48 TCPU       54.30
 TTTTTTTTTTTTTTTTTTTTTTTTTTTTTT MONMO3      TELAPSE       56.55 TCPU       54.37
 NUMERICALLY INTEGRATED DENSITY    283.9999360232
 TTTTTTTTTTTTTTTTTTTTTTTTTTTTTT NUMDFT      TELAPSE       56.82 TCPU       54.64
 CYC   1 ETOT(AU) -1.868718016652E+03 DETOT  1.56E+01 tst  0.00E+00 PX  1.00E+00
 TTTTTTTTTTTTTTTTTTTTTTTTTTTTTT DIIS        TELAPSE       56.90 TCPU       54.72
 DIIS TEST: 0.16800E+01 AT SCF   CYCLE   1 - MIX   30 %
 TTTTTTTTTTTTTTTTTTTTTTTTTTTTTT FDIK        TELAPSE       58.15 TCPU       55.95
 INSULATING STATE
 TOP OF VALENCE BANDS -    BAND    142; K    9; EIG -2.7011190E-01 AU
 TOP OF VALENCE BANDS -    BAND    142; K    1; EIG -2.7212772E-01 AU
 BOTTOM OF VIRTUAL BANDS - BAND    143; K   30; EIG -4.5454600E-02 AU
 INDIRECT ENERGY BAND GAP:   6.1132 eV
 BOTTOM OF VIRTUAL BANDS - BAND    143; K    1; EIG -4.4296636E-02 AU
 TTTTTTTTTTTTTTTTTTTTTTTTTTTTTT PDIG        TELAPSE       58.42 TCPU       56.22
 CHARGE NORMALIZATION FACTOR   1.00000000
 TOTAL ATOMIC CHARGES:
   6.1253213   6.1253213   0.8829219   0.8829219   5.8102155   5.8102155
   6.0845829   6.0845829   0.8827092   0.8827092   5.7971887   5.7971887
   6.1443253   6.1443253   0.8680753   0.8680753   6.0616813   6.0616813
   5.9077479   5.9077479   0.8491593   0.8491593   6.0703831   6.0703831
   0.8940297   0.8940297   5.8471637   5.8471637   6.1123685   6.1123685
   0.8717724   0.8717724   6.0835089   6.0835089   0.8753382   0.8753382
   6.0628267   6.0628267   6.1035056   6.1035056   0.8743419   0.8743419
   5.6845298   5.6845298   6.2736000   6.2736000   0.8110277   0.8110277
   0.8076631   0.8076631   0.7909697   0.7909697   7.4860708   7.4860708
   8.5568388   8.5568388   8.5743977   8.5743977   8.2469198   8.2469198
   8.4468761   8.4468761   0.5563714   0.5563714   0.5555678   0.5555678
 TTTTTTTTTTTTTTTTTTTTTTTTTTTTTT MOQGAD      TELAPSE       58.43 TCPU       56.23
 TTTTTTTTTTTTTTTTTTTTTTTTTTTTTT SHELLXN     TELAPSE       81.40 TCPU       79.08
 TTTTTTTTTTTTTTTTTTTTTTTTTTTTTT MONMO3      TELAPSE       81.48 TCPU       79.16
 NUMERICALLY INTEGRATED DENSITY    283.9999322729
 TTTTTTTTTTTTTTTTTTTTTTTTTTTTTT NUMDFT      TELAPSE       81.75 TCPU       79.43
 CYC   2 ETOT(AU) -1.869070705827E+03 DETOT -3.53E-01 tst  2.53E-03 PX  2.15E-01
 TTTTTTTTTTTTTTTTTTTTTTTTTTTTTT DIIS        TELAPSE       81.83 TCPU       79.50
 DIIS TEST: 0.55272E+00 AT SCF   CYCLE   2 - DIIS ACTIVE - HISTORY:     2 CYCLES
 TTTTTTTTTTTTTTTTTTTTTTTTTTTTTT FDIK        TELAPSE       83.94 TCPU       81.59
 INSULATING STATE
 TOP OF VALENCE BANDS -    BAND    142; K    7; EIG -2.7840887E-01 AU
 TOP OF VALENCE BANDS -    BAND    142; K    1; EIG -2.8011232E-01 AU
 BOTTOM OF VIRTUAL BANDS - BAND    143; K   30; EIG  2.5267222E-03 AU
 INDIRECT ENERGY BAND GAP:   7.6446 eV
 BOTTOM OF VIRTUAL BANDS - BAND    143; K    1; EIG  3.1429620E-03 AU
 TTTTTTTTTTTTTTTTTTTTTTTTTTTTTT PDIG        TELAPSE       84.21 TCPU       81.86
 CHARGE NORMALIZATION FACTOR   1.00000000
 TOTAL ATOMIC CHARGES:
   6.1565194   6.1565194   0.8747819   0.8747819   5.6717752   5.6717752
   6.1140311   6.1140311   0.8708647   0.8708647   5.7324557   5.7324557
   6.2127710   6.2127710   0.8671984   0.8671984   5.9976756   5.9976756
   5.8416599   5.8416599   0.8458363   0.8458363   6.1054203   6.1054203
   0.8824937   0.8824937   5.7963909   5.7963909   6.1434863   6.1434863
   0.8611371   0.8611371   6.1037423   6.1037423   0.8670539   0.8670539
   5.9808212   5.9808212   6.1306159   6.1306159   0.8755189   0.8755189
   5.3833428   5.3833428   6.2599519   6.2599519   0.8122982   0.8122982
   0.8154750   0.8154750   0.8019417   0.8019417   7.5495992   7.5495992
   8.6666557   8.6666557   8.6832167   8.6832167   8.5797327   8.5797327
   8.4420753   8.4420753   0.5368333   0.5368333   0.5366276   0.5366276
 TTTTTTTTTTTTTTTTTTTTTTTTTTTTTT MOQGAD      TELAPSE       84.22 TCPU       81.86
 TTTTTTTTTTTTTTTTTTTTTTTTTTTTTT SHELLXN     TELAPSE      108.07 TCPU      105.52
 TTTTTTTTTTTTTTTTTTTTTTTTTTTTTT MONMO3      TELAPSE      108.14 TCPU      105.59
 NUMERICALLY INTEGRATED DENSITY    283.9999294766
 TTTTTTTTTTTTTTTTTTTTTTTTTTTTTT NUMDFT      TELAPSE      108.42 TCPU      105.86
 CYC   3 ETOT(AU) -1.869179626785E+03 DETOT -1.09E-01 tst  7.87E-04 PX  1.02E-01
 TTTTTTTTTTTTTTTTTTTTTTTTTTTTTT DIIS        TELAPSE      108.49 TCPU      105.94
 DIIS TEST: 0.59378E-01 AT SCF   CYCLE   3 - DIIS ACTIVE - HISTORY:     3 CYCLES
 TTTTTTTTTTTTTTTTTTTTTTTTTTTTTT FDIK        TELAPSE      109.58 TCPU      107.00
 INSULATING STATE
 TOP OF VALENCE BANDS -    BAND    142; K    7; EIG -2.8782241E-01 AU
 TOP OF VALENCE BANDS -    BAND    142; K    1; EIG -2.8977415E-01 AU
 BOTTOM OF VIRTUAL BANDS - BAND    143; K    3; EIG -5.8148283E-03 AU
 INDIRECT ENERGY BAND GAP:   7.6738 eV
 BOTTOM OF VIRTUAL BANDS - BAND    143; K    1; EIG -5.3744558E-03 AU
 TTTTTTTTTTTTTTTTTTTTTTTTTTTTTT PDIG        TELAPSE      109.85 TCPU      107.26
 CHARGE NORMALIZATION FACTOR   1.00000000
 TOTAL ATOMIC CHARGES:
   6.2061194   6.2061194   0.8637327   0.8637327   5.6674815   5.6674815
   6.1277587   6.1277587   0.8636423   0.8636423   5.6510621   5.6510621
   6.1999458   6.1999458   0.8550979   0.8550979   6.0627747   6.0627747
   5.8354402   5.8354402   0.8379830   0.8379830   6.1266626   6.1266626
   0.8756890   0.8756890   5.7703820   5.7703820   6.1603032   6.1603032
   0.8519522   0.8519522   6.1260811   6.1260811   0.8580680   0.8580680
   6.0263390   6.0263390   6.1292059   6.1292059   0.8571651   0.8571651
   5.3995553   5.3995553   6.2575244   6.2575244   0.8095061   0.8095061
   0.8048377   0.8048377   0.7898170   0.7898170   7.5756007   7.5756007
   8.6657224   8.6657224   8.6957192   8.6957192   8.4697015   8.4697015
   8.5156393   8.5156393   0.5307619   0.5307619   0.5327282   0.5327282
 TTTTTTTTTTTTTTTTTTTTTTTTTTTTTT MOQGAD      TELAPSE      109.85 TCPU      107.27
 TTTTTTTTTTTTTTTTTTTTTTTTTTTTTT SHELLXN     TELAPSE      133.23 TCPU      130.53
 TTTTTTTTTTTTTTTTTTTTTTTTTTTTTT MONMO3      TELAPSE      133.31 TCPU      130.61
 NUMERICALLY INTEGRATED DENSITY    283.9999299906
 TTTTTTTTTTTTTTTTTTTTTTTTTTTTTT NUMDFT      TELAPSE      133.58 TCPU      130.88
 CYC   4 ETOT(AU) -1.869189771667E+03 DETOT -1.01E-02 tst  1.39E-04 PX  4.16E-02
 TTTTTTTTTTTTTTTTTTTTTTTTTTTTTT DIIS        TELAPSE      133.66 TCPU      130.96
 DIIS TEST: 0.21709E-01 AT SCF   CYCLE   4 - DIIS ACTIVE - HISTORY:     4 CYCLES
 TTTTTTTTTTTTTTTTTTTTTTTTTTTTTT FDIK        TELAPSE      134.77 TCPU      132.04
 INSULATING STATE
 TOP OF VALENCE BANDS -    BAND    142; K    7; EIG -2.8728002E-01 AU
 TOP OF VALENCE BANDS -    BAND    142; K    1; EIG -2.8909997E-01 AU
 BOTTOM OF VIRTUAL BANDS - BAND    143; K    3; EIG -1.5352209E-03 AU
 INDIRECT ENERGY BAND GAP:   7.7755 eV
 BOTTOM OF VIRTUAL BANDS - BAND    143; K    1; EIG -1.0835612E-03 AU
 TTTTTTTTTTTTTTTTTTTTTTTTTTTTTT PDIG        TELAPSE      135.04 TCPU      132.31
 CHARGE NORMALIZATION FACTOR   1.00000000
 TOTAL ATOMIC CHARGES:
   6.1958854   6.1958854   0.8616479   0.8616479   5.6675874   5.6675874
   6.1181769   6.1181769   0.8615712   0.8615712   5.6956365   5.6956365
   6.2239257   6.2239257   0.8525711   0.8525711   6.0484442   6.0484442
   5.8407426   5.8407426   0.8353407   0.8353407   6.1166760   6.1166760
   0.8734473   0.8734473   5.7762831   5.7762831   6.1533880   6.1533880
   0.8492853   0.8492853   6.1158184   6.1158184   0.8564480   0.8564480
   6.0296626   6.0296626   6.1396226   6.1396226   0.8588229   0.8588229
   5.3993907   5.3993907   6.2658536   6.2658536   0.8083507   0.8083507
   0.8069651   0.8069651   0.7920669   0.7920669   7.5600726   7.5600726
   8.6647492   8.6647492   8.6800868   8.6800868   8.5082644   8.5082644
   8.4808103   8.4808103   0.5308120   0.5308120   0.5315940   0.5315940
 TTTTTTTTTTTTTTTTTTTTTTTTTTTTTT MOQGAD      TELAPSE      135.05 TCPU      132.31
 TTTTTTTTTTTTTTTTTTTTTTTTTTTTTT SHELLXN     TELAPSE      158.39 TCPU      155.52
 TTTTTTTTTTTTTTTTTTTTTTTTTTTTTT MONMO3      TELAPSE      158.47 TCPU      155.59
 NUMERICALLY INTEGRATED DENSITY    283.9999298494
 TTTTTTTTTTTTTTTTTTTTTTTTTTTTTT NUMDFT      TELAPSE      158.74 TCPU      155.86
 CYC   5 ETOT(AU) -1.869194448302E+03 DETOT -4.68E-03 tst  3.66E-05 PX  1.41E-02
 TTTTTTTTTTTTTTTTTTTTTTTTTTTTTT DIIS        TELAPSE      158.82 TCPU      155.94
 DIIS TEST: 0.29134E-02 AT SCF   CYCLE   5 - DIIS ACTIVE - HISTORY:     5 CYCLES
 TTTTTTTTTTTTTTTTTTTTTTTTTTTTTT FDIK        TELAPSE      159.93 TCPU      157.01
 INSULATING STATE
 TOP OF VALENCE BANDS -    BAND    142; K    7; EIG -2.8725970E-01 AU
 TOP OF VALENCE BANDS -    BAND    142; K    1; EIG -2.8919300E-01 AU
 BOTTOM OF VIRTUAL BANDS - BAND    143; K    3; EIG -2.0504293E-03 AU
 INDIRECT ENERGY BAND GAP:   7.7609 eV
 BOTTOM OF VIRTUAL BANDS - BAND    143; K    1; EIG -1.6087365E-03 AU
 TTTTTTTTTTTTTTTTTTTTTTTTTTTTTT PDIG        TELAPSE      160.20 TCPU      157.28
 CHARGE NORMALIZATION FACTOR   1.00000000
 TOTAL ATOMIC CHARGES:
   6.1870602   6.1870602   0.8617891   0.8617891   5.6750498   5.6750498
   6.1194054   6.1194054   0.8612924   0.8612924   5.6892359   5.6892359
   6.2123981   6.2123981   0.8536452   0.8536452   6.0484364   6.0484364
   5.8410795   5.8410795   0.8344904   0.8344904   6.1189575   6.1189575
   0.8727633   0.8727633   5.7865334   5.7865334   6.1601923   6.1601923
   0.8487839   0.8487839   6.1184828   6.1184828   0.8554756   0.8554756
   6.0159429   6.0159429   6.1318652   6.1318652   0.8580829   0.8580829
   5.3955160   5.3955160   6.2616701   6.2616701   0.8089183   0.8089183
   0.8065292   0.8065292   0.7921414   0.7921414   7.5698470   7.5698470
   8.6658665   8.6658665   8.6900692   8.6900692   8.5084956   8.5084956
   8.4884222   8.4884222   0.5296375   0.5296375   0.5319249   0.5319249
 TTTTTTTTTTTTTTTTTTTTTTTTTTTTTT MOQGAD      TELAPSE      160.20 TCPU      157.28
 TTTTTTTTTTTTTTTTTTTTTTTTTTTTTT SHELLXN     TELAPSE      183.16 TCPU      180.07
 TTTTTTTTTTTTTTTTTTTTTTTTTTTTTT MONMO3      TELAPSE      183.23 TCPU      180.15
 NUMERICALLY INTEGRATED DENSITY    283.9999297452
 TTTTTTTTTTTTTTTTTTTTTTTTTTTTTT NUMDFT      TELAPSE      183.52 TCPU      180.43
 CYC   6 ETOT(AU) -1.869195011087E+03 DETOT -5.63E-04 tst  9.54E-06 PX  3.84E-03
 TTTTTTTTTTTTTTTTTTTTTTTTTTTTTT DIIS        TELAPSE      183.60 TCPU      180.51
 DIIS TEST: 0.56293E-03 AT SCF   CYCLE   6 - DIIS ACTIVE - HISTORY:     6 CYCLES
 TTTTTTTTTTTTTTTTTTTTTTTTTTTTTT FDIK        TELAPSE      184.65 TCPU      181.53
 INSULATING STATE
 TOP OF VALENCE BANDS -    BAND    142; K    7; EIG -2.8647843E-01 AU
 TOP OF VALENCE BANDS -    BAND    142; K    1; EIG -2.8831422E-01 AU
 BOTTOM OF VIRTUAL BANDS - BAND    143; K    3; EIG -1.2190807E-03 AU
 INDIRECT ENERGY BAND GAP:   7.7623 eV
 BOTTOM OF VIRTUAL BANDS - BAND    143; K    1; EIG -7.8053463E-04 AU
 TTTTTTTTTTTTTTTTTTTTTTTTTTTTTT PDIG        TELAPSE      184.92 TCPU      181.80
 CHARGE NORMALIZATION FACTOR   1.00000000
 TOTAL ATOMIC CHARGES:
   6.1909455   6.1909455   0.8614092   0.8614092   5.6716536   5.6716536
   6.1214296   6.1214296   0.8606994   0.8606994   5.6897558   5.6897558
   6.2163821   6.2163821   0.8537119   0.8537119   6.0467232   6.0467232
   5.8410257   5.8410257   0.8345842   0.8345842   6.1189789   6.1189789
   0.8725311   0.8725311   5.7784471   5.7784471   6.1559151   6.1559151
   0.8483248   0.8483248   6.1207940   6.1207940   0.8551156   0.8551156
   6.0220959   6.0220959   6.1380367   6.1380367   0.8578449   0.8578449
   5.3958916   5.3958916   6.2610964   6.2610964   0.8090081   0.8090081
   0.8062400   0.8062400   0.7920215   0.7920215   7.5642705   7.5642705
   8.6677026   8.6677026   8.6880354   8.6880354   8.5068431   8.5068431
   8.4905200   8.4905200   0.5300249   0.5300249   0.5319415   0.5319415
 TTTTTTTTTTTTTTTTTTTTTTTTTTTTTT MOQGAD      TELAPSE      184.92 TCPU      181.80
 TTTTTTTTTTTTTTTTTTTTTTTTTTTTTT SHELLXN     TELAPSE      207.47 TCPU      204.24
 TTTTTTTTTTTTTTTTTTTTTTTTTTTTTT MONMO3      TELAPSE      207.54 TCPU      204.32
 NUMERICALLY INTEGRATED DENSITY    283.9999298275
 TTTTTTTTTTTTTTTTTTTTTTTTTTTTTT NUMDFT      TELAPSE      207.80 TCPU      204.58
 CYC   7 ETOT(AU) -1.869195118888E+03 DETOT -1.08E-04 tst  3.25E-06 PX  2.25E-03
 TTTTTTTTTTTTTTTTTTTTTTTTTTTTTT DIIS        TELAPSE      207.89 TCPU      204.66
 DIIS TEST: 0.15460E-03 AT SCF   CYCLE   7 - DIIS ACTIVE - HISTORY:     7 CYCLES
 TTTTTTTTTTTTTTTTTTTTTTTTTTTTTT FDIK        TELAPSE      208.91 TCPU      205.65
 INSULATING STATE
 TOP OF VALENCE BANDS -    BAND    142; K    7; EIG -2.8711502E-01 AU
 TOP OF VALENCE BANDS -    BAND    142; K    1; EIG -2.8899056E-01 AU
 BOTTOM OF VIRTUAL BANDS - BAND    143; K    3; EIG -1.4593314E-03 AU
 INDIRECT ENERGY BAND GAP:   7.7731 eV
 BOTTOM OF VIRTUAL BANDS - BAND    143; K    1; EIG -1.0204065E-03 AU
 TTTTTTTTTTTTTTTTTTTTTTTTTTTTTT PDIG        TELAPSE      209.17 TCPU      205.91
 CHARGE NORMALIZATION FACTOR   1.00000000
 TOTAL ATOMIC CHARGES:
   6.1915218   6.1915218   0.8611847   0.8611847   5.6723169   5.6723169
   6.1207707   6.1207707   0.8606541   0.8606541   5.6890453   5.6890453
   6.2159153   6.2159153   0.8534321   0.8534321   6.0483261   6.0483261
   5.8409514   5.8409514   0.8342710   0.8342710   6.1191416   6.1191416
   0.8724305   0.8724305   5.7811508   5.7811508   6.1583828   6.1583828
   0.8481086   0.8481086   6.1196314   6.1196314   0.8550328   0.8550328
   6.0202470   6.0202470   6.1357536   6.1357536   0.8577600   0.8577600
   5.3954713   5.3954713   6.2621188   6.2621188   0.8088442   0.8088442
   0.8061811   0.8061811   0.7919996   0.7919996   7.5665379   7.5665379
   8.6666937   8.6666937   8.6879394   8.6879394   8.5078901   8.5078901
   8.4883975   8.4883975   0.5299342   0.5299342   0.5319638   0.5319638
 TTTTTTTTTTTTTTTTTTTTTTTTTTTTTT MOQGAD      TELAPSE      209.17 TCPU      205.92
 TTTTTTTTTTTTTTTTTTTTTTTTTTTTTT SHELLXN     TELAPSE      231.49 TCPU      228.08
 TTTTTTTTTTTTTTTTTTTTTTTTTTTTTT MONMO3      TELAPSE      231.56 TCPU      228.15
 NUMERICALLY INTEGRATED DENSITY    283.9999298452
 TTTTTTTTTTTTTTTTTTTTTTTTTTTTTT NUMDFT      TELAPSE      231.82 TCPU      228.41
 CYC   8 ETOT(AU) -1.869195154368E+03 DETOT -3.55E-05 tst  5.14E-07 PX  9.18E-04
 TTTTTTTTTTTTTTTTTTTTTTTTTTTTTT DIIS        TELAPSE      231.90 TCPU      228.49
 DIIS TEST: 0.80330E-05 AT SCF   CYCLE   8 - DIIS ACTIVE - HISTORY:     8 CYCLES
 TTTTTTTTTTTTTTTTTTTTTTTTTTTTTT FDIK        TELAPSE      232.93 TCPU      229.49
 INSULATING STATE
 TOP OF VALENCE BANDS -    BAND    142; K    7; EIG -2.8707572E-01 AU
 TOP OF VALENCE BANDS -    BAND    142; K    1; EIG -2.8894285E-01 AU
 BOTTOM OF VIRTUAL BANDS - BAND    143; K    3; EIG -1.5075024E-03 AU
 INDIRECT ENERGY BAND GAP:   7.7707 eV
 BOTTOM OF VIRTUAL BANDS - BAND    143; K    1; EIG -1.0694383E-03 AU
 TTTTTTTTTTTTTTTTTTTTTTTTTTTTTT PDIG        TELAPSE      233.19 TCPU      229.75
 CHARGE NORMALIZATION FACTOR   1.00000000
 TOTAL ATOMIC CHARGES:
   6.1905192   6.1905192   0.8612255   0.8612255   5.6724145   5.6724145
   6.1205164   6.1205164   0.8606378   0.8606378   5.6897121   5.6897121
   6.2159415   6.2159415   0.8535452   0.8535452   6.0477082   6.0477082
   5.8412810   5.8412810   0.8341858   0.8341858   6.1190761   6.1190761
   0.8723617   0.8723617   5.7811799   5.7811799   6.1579185   6.1579185
   0.8479873   0.8479873   6.1198347   6.1198347   0.8549904   0.8549904
   6.0203073   6.0203073   6.1361620   6.1361620   0.8577169   0.8577169
   5.3955520   5.3955520   6.2619693   6.2619693   0.8088331   0.8088331
   0.8059969   0.8059969   0.7919147   0.7919147   7.5662306   7.5662306
   8.6671326   8.6671326   8.6887243   8.6887243   8.5076107   8.5076107
   8.4890795   8.4890795   0.5298179   0.5298179   0.5319164   0.5319164
 TTTTTTTTTTTTTTTTTTTTTTTTTTTTTT MOQGAD      TELAPSE      233.20 TCPU      229.75
 TTTTTTTTTTTTTTTTTTTTTTTTTTTTTT SHELLXN     TELAPSE      255.59 TCPU      252.00
 TTTTTTTTTTTTTTTTTTTTTTTTTTTTTT MONMO3      TELAPSE      255.67 TCPU      252.07
 NUMERICALLY INTEGRATED DENSITY    283.9999298687
 TTTTTTTTTTTTTTTTTTTTTTTTTTTTTT NUMDFT      TELAPSE      255.94 TCPU      252.35
 CYC   9 ETOT(AU) -1.869195158364E+03 DETOT -4.00E-06 tst  1.11E-07 PX  3.77E-04
 TTTTTTTTTTTTTTTTTTTTTTTTTTTTTT DIIS        TELAPSE      256.03 TCPU      252.43
 DIIS TEST: 0.17021E-05 AT SCF   CYCLE   9 - DIIS ACTIVE - HISTORY:     9 CYCLES
 TTTTTTTTTTTTTTTTTTTTTTTTTTTTTT FDIK        TELAPSE      257.10 TCPU      253.48
 INSULATING STATE
 TOP OF VALENCE BANDS -    BAND    142; K    7; EIG -2.8706647E-01 AU
 TOP OF VALENCE BANDS -    BAND    142; K    1; EIG -2.8893487E-01 AU
 BOTTOM OF VIRTUAL BANDS - BAND    143; K    3; EIG -1.4713618E-03 AU
 INDIRECT ENERGY BAND GAP:   7.7714 eV
 BOTTOM OF VIRTUAL BANDS - BAND    143; K    1; EIG -1.0334438E-03 AU
 TTTTTTTTTTTTTTTTTTTTTTTTTTTTTT PDIG        TELAPSE      257.37 TCPU      253.75
 CHARGE NORMALIZATION FACTOR   1.00000000
 TOTAL ATOMIC CHARGES:
   6.1908455   6.1908455   0.8611978   0.8611978   5.6725590   5.6725590
   6.1208703   6.1208703   0.8606052   0.8606052   5.6894062   5.6894062
   6.2157376   6.2157376   0.8535952   0.8535952   6.0478477   6.0478477
   5.8412895   5.8412895   0.8341820   0.8341820   6.1191337   6.1191337
   0.8723504   0.8723504   5.7810627   5.7810627   6.1580365   6.1580365
   0.8479368   0.8479368   6.1199899   6.1199899   0.8549729   0.8549729
   6.0201003   6.0201003   6.1361820   6.1361820   0.8577250   0.8577250
   5.3954711   5.3954711   6.2620367   6.2620367   0.8088308   0.8088308
   0.8059595   0.8059595   0.7919206   0.7919206   7.5661416   7.5661416
   8.6670591   8.6670591   8.6884322   8.6884322   8.5076919   8.5076919
   8.4889539   8.4889539   0.5298977   0.5298977   0.5319786   0.5319786
 TTTTTTTTTTTTTTTTTTTTTTTTTTTTTT MOQGAD      TELAPSE      257.38 TCPU      253.76
 TTTTTTTTTTTTTTTTTTTTTTTTTTTTTT SHELLXN     TELAPSE      280.45 TCPU      276.72
 TTTTTTTTTTTTTTTTTTTTTTTTTTTTTT MONMO3      TELAPSE      280.53 TCPU      276.79
 NUMERICALLY INTEGRATED DENSITY    283.9999298853
 TTTTTTTTTTTTTTTTTTTTTTTTTTTTTT NUMDFT      TELAPSE      280.80 TCPU      277.07
 CYC  10 ETOT(AU) -1.869195159017E+03 DETOT -6.53E-07 tst  2.78E-08 PX  1.47E-04
 TTTTTTTTTTTTTTTTTTTTTTTTTTTTTT DIIS        TELAPSE      280.89 TCPU      277.16
 DIIS TEST: 0.24475E-06 AT SCF   CYCLE  10 - DIIS ACTIVE - HISTORY:    10 CYCLES
 TTTTTTTTTTTTTTTTTTTTTTTTTTTTTT FDIK        TELAPSE      281.93 TCPU      278.16
 INSULATING STATE
 TOP OF VALENCE BANDS -    BAND    142; K    7; EIG -2.8707238E-01 AU
 TOP OF VALENCE BANDS -    BAND    142; K    1; EIG -2.8894029E-01 AU
 BOTTOM OF VIRTUAL BANDS - BAND    143; K    3; EIG -1.4711009E-03 AU
 INDIRECT ENERGY BAND GAP:   7.7716 eV
 BOTTOM OF VIRTUAL BANDS - BAND    143; K    1; EIG -1.0333481E-03 AU
 TTTTTTTTTTTTTTTTTTTTTTTTTTTTTT PDIG        TELAPSE      282.20 TCPU      278.43
 CHARGE NORMALIZATION FACTOR   1.00000000
 TOTAL ATOMIC CHARGES:
   6.1908458   6.1908458   0.8611902   0.8611902   5.6724329   5.6724329
   6.1207494   6.1207494   0.8606148   0.8606148   5.6894670   5.6894670
   6.2158494   6.2158494   0.8536128   0.8536128   6.0477766   6.0477766
   5.8412498   5.8412498   0.8341766   0.8341766   6.1191236   6.1191236
   0.8723376   0.8723376   5.7811101   5.7811101   6.1580431   6.1580431
   0.8478964   0.8478964   6.1199422   6.1199422   0.8549772   0.8549772
   6.0201780   6.0201780   6.1361753   6.1361753   0.8577259   0.8577259
   5.3955209   5.3955209   6.2620759   6.2620759   0.8088273   0.8088273
   0.8059207   0.8059207   0.7919059   0.7919059   7.5662156   7.5662156
   8.6671125   8.6671125   8.6885588   8.6885588   8.5075702   8.5075702
   8.4889382   8.4889382   0.5298919   0.5298919   0.5319873   0.5319873
 TTTTTTTTTTTTTTTTTTTTTTTTTTTTTT MOQGAD      TELAPSE      282.20 TCPU      278.44
 TTTTTTTTTTTTTTTTTTTTTTTTTTTTTT SHELLXN     TELAPSE      305.32 TCPU      301.37
 TTTTTTTTTTTTTTTTTTTTTTTTTTTTTT MONMO3      TELAPSE      305.39 TCPU      301.45
 NUMERICALLY INTEGRATED DENSITY    283.9999298917
 TTTTTTTTTTTTTTTTTTTTTTTTTTTTTT NUMDFT      TELAPSE      305.67 TCPU      301.72
 CYC  11 ETOT(AU) -1.869195159307E+03 DETOT -2.90E-07 tst  1.48E-08 PX  6.70E-05
 TTTTTTTTTTTTTTTTTTTTTTTTTTTTTT DIIS        TELAPSE      305.76 TCPU      301.81
 DIIS TEST: 0.75900E-07 AT SCF   CYCLE  11 - DIIS ACTIVE - HISTORY:    11 CYCLES
 TTTTTTTTTTTTTTTTTTTTTTTTTTTTTT FDIK        TELAPSE      306.78 TCPU      302.80
 INSULATING STATE
 TOP OF VALENCE BANDS -    BAND    142; K    7; EIG -2.8707661E-01 AU
 TOP OF VALENCE BANDS -    BAND    142; K    1; EIG -2.8894361E-01 AU
 BOTTOM OF VIRTUAL BANDS - BAND    143; K    3; EIG -1.4742398E-03 AU
 INDIRECT ENERGY BAND GAP:   7.7716 eV
 BOTTOM OF VIRTUAL BANDS - BAND    143; K    1; EIG -1.0364950E-03 AU
 TTTTTTTTTTTTTTTTTTTTTTTTTTTTTT PDIG        TELAPSE      307.05 TCPU      303.06
 CHARGE NORMALIZATION FACTOR   1.00000000
 TOTAL ATOMIC CHARGES:
   6.1907993   6.1907993   0.8611884   0.8611884   5.6725219   5.6725219
   6.1207957   6.1207957   0.8606127   0.8606127   5.6894604   5.6894604
   6.2157761   6.2157761   0.8536280   0.8536280   6.0478181   6.0478181
   5.8413351   5.8413351   0.8341679   0.8341679   6.1191142   6.1191142
   0.8723345   0.8723345   5.7811082   5.7811082   6.1580234   6.1580234
   0.8478828   0.8478828   6.1199669   6.1199669   0.8549783   0.8549783
   6.0201439   6.0201439   6.1362004   6.1362004   0.8577306   0.8577306
   5.3954736   5.3954736   6.2620746   6.2620746   0.8088253   0.8088253
   0.8058950   0.8058950   0.7918982   0.7918982   7.5660996   7.5660996
   8.6671247   8.6671247   8.6885550   8.6885550   8.5075994   8.5075994
   8.4889789   8.4889789   0.5298971   0.5298971   0.5319917   0.5319917
 TTTTTTTTTTTTTTTTTTTTTTTTTTTTTT MOQGAD      TELAPSE      307.06 TCPU      303.07
 TTTTTTTTTTTTTTTTTTTTTTTTTTTTTT SHELLXN     TELAPSE      330.12 TCPU      326.00
 TTTTTTTTTTTTTTTTTTTTTTTTTTTTTT MONMO3      TELAPSE      330.19 TCPU      326.08
 NUMERICALLY INTEGRATED DENSITY    283.9999298985
 TTTTTTTTTTTTTTTTTTTTTTTTTTTTTT NUMDFT      TELAPSE      330.47 TCPU      326.35
 CYC  12 ETOT(AU) -1.869195159401E+03 DETOT -9.38E-08 tst  5.09E-09 PX  5.69E-05
 TTTTTTTTTTTTTTTTTTTTTTTTTTTTTT DIIS        TELAPSE      330.57 TCPU      326.45
 DIIS TEST: 0.18563E-07 AT SCF   CYCLE  12 - DIIS ACTIVE - HISTORY:    12 CYCLES
 TTTTTTTTTTTTTTTTTTTTTTTTTTTTTT FDIK        TELAPSE      331.62 TCPU      327.48
 INSULATING STATE
 TOP OF VALENCE BANDS -    BAND    142; K    7; EIG -2.8706963E-01 AU
 TOP OF VALENCE BANDS -    BAND    142; K    1; EIG -2.8893703E-01 AU
 BOTTOM OF VIRTUAL BANDS - BAND    143; K    3; EIG -1.4751163E-03 AU
 INDIRECT ENERGY BAND GAP:   7.7714 eV
 BOTTOM OF VIRTUAL BANDS - BAND    143; K    1; EIG -1.0374480E-03 AU
 TTTTTTTTTTTTTTTTTTTTTTTTTTTTTT PDIG        TELAPSE      331.89 TCPU      327.74
 CHARGE NORMALIZATION FACTOR   1.00000000
 TOTAL ATOMIC CHARGES:
   6.1908092   6.1908092   0.8611872   0.8611872   5.6725123   5.6725123
   6.1208138   6.1208138   0.8606153   0.8606153   5.6894568   5.6894568
   6.2157739   6.2157739   0.8536387   0.8536387   6.0477785   6.0477785
   5.8412989   5.8412989   0.8341716   0.8341716   6.1191186   6.1191186
   0.8723299   0.8723299   5.7811143   5.7811143   6.1580170   6.1580170
   0.8478689   0.8478689   6.1199906   6.1199906   0.8549802   0.8549802
   6.0201280   6.0201280   6.1362040   6.1362040   0.8577329   0.8577329
   5.3954864   5.3954864   6.2620837   6.2620837   0.8088255   0.8088255
   0.8058825   0.8058825   0.7918944   0.7918944   7.5661441   7.5661441
   8.6671373   8.6671373   8.6885519   8.6885519   8.5075748   8.5075748
   8.4889766   8.4889766   0.5299047   0.5299047   0.5319975   0.5319975
 TTTTTTTTTTTTTTTTTTTTTTTTTTTTTT MOQGAD      TELAPSE      331.90 TCPU      327.75
 TTTTTTTTTTTTTTTTTTTTTTTTTTTTTT SHELLXN     TELAPSE      354.86 TCPU      350.62
 +++ ENERGIES IN A.U. +++
 ::: EXT EL-POLE                                  -3.6613967576921E+03
 ::: EXT EL-SPHEROPOLE                             3.4556539364988E+01
 ::: BIELET ZONE E-E                               4.2172235009537E+03
 ::: TOTAL E-E                                     5.9038328262659E+02
 ::: TOTAL E-N + N-E                              -3.8566447561129E+03
 ::: TOTAL N-N                                    -2.8894123633453E+02
 ::: KINETIC ENERGY                                1.8637141092028E+03
 ::: PSEUDO TOTAL   ENERGY                        -1.6914886006180E+03
 ::: VIRIAL COEFFICIENT                            1.0484432316923E+00
 TTTTTTTTTTTTTTTTTTTTTTTTTTTTTT MONMO3      TELAPSE      354.94 TCPU      350.70
 NUMERICALLY INTEGRATED DENSITY    283.9999299013
 EXCHANGE ENERGY: -0.165888253076E+03  CORRELATION ENERGY: -0.118183057370E+02
 TTTTTTTTTTTTTTTTTTTTTTTTTTTTTT NUMDFT      TELAPSE      355.21 TCPU      350.97
 CYC  13 ETOT(AU) -1.869195159431E+03 DETOT -2.99E-08 tst  1.03E-09 PX  5.69E-05

 == SCF ENDED - CONVERGENCE ON ENERGY      E(AU) -1.8691951594307E+03 CYCLES  13


 ENERGY EXPRESSION=HARTREE+FOCK EXCH*0.00000+(WB97X      EXCH)*1.00000+wB97X      CORR


 TOTAL ENERGY(DFT)(AU)( 13) -1.8691951594307E+03 DE-3.0E-08 tester 1.0E-09
 TTTTTTTTTTTTTTTTTTTTTTTTTTTTTT EDFT        TELAPSE      355.26 TCPU      351.02

 *******************************************************************************
 *                             FORCE CALCULATION                               *
 *******************************************************************************

 TTTTTTTTTTTTTTTTTTTTTTTTTTTTTT NUMDFG      TELAPSE      358.80 TCPU      354.54
[...]
  17 C    1     2.3784     4.4944   63 H    0 0 0

  19 C    1     1.0962     2.0716   21 H    0 0 0
  19 C    1     1.2900     2.4378   53 N    0 0 0
  19 C    1     1.4454     2.7315   17 C    0 0 0
  19 C    1     2.3034     4.3529   63 H    0 0 0
  19 C    1     2.3461     4.4335   27 C    0 0 0
  19 C    1     2.4681     4.6641    7 C    0 0 0

  21 H    1     1.0962     2.0716   19 C    0 0 0
  21 H    1     2.0842     3.9386   53 N    0 0 0
  21 H    1     2.1787     4.1171   17 C    0 0 0
  21 H    1     2.3323     4.4075   31 H    0 0 0
  21 H    1     2.4006     4.5366    9 H    0 0 0
  21 H    1     2.5435     4.8065   57 O    0 0-1

  23 C    1     1.0846     2.0497   25 H    0 0 0
  23 C    1     1.3835     2.6143   39 C    0 0 0
  23 C    1     1.3994     2.6445   27 C    0 0 0
  23 C    1     2.1459     4.0551   41 H    0 0 0
  23 C    1     2.3946     4.5251   53 N    0 0 0
  23 C    1     2.4117     4.5575   37 C    0 0 0

  25 H    1     1.0846     2.0497   23 C    0 0 0
  25 H    1     2.1445     4.0525   27 C    0 0 0
  25 H    1     2.1523     4.0673   39 C    0 0 0
  25 H    1     2.4376     4.6065   35 H    0 0 1
  25 H    1     2.4886     4.7028   41 H    0 0 0
  25 H    1     2.5880     4.8907   53 N    0 0 0

  27 C    1     1.3994     2.6445   23 C    0 0 0
  27 C    1     1.4003     2.6462   53 N    0 0 0
  27 C    1     1.4018     2.6490   29 C    0 0 0
  27 C    1     2.1445     4.0525   25 H    0 0 0
  27 C    1     2.1545     4.0713   31 H    0 0 0
  27 C    1     2.3461     4.4335   19 C    0 0 0

  29 C    1     1.0853     2.0510   31 H    0 0 0
  29 C    1     1.3892     2.6251   33 C    0 0 0
  29 C    1     1.4018     2.6490   27 C    0 0 0
  29 C    1     2.1480     4.0592   35 H    0 0 0
  29 C    1     2.4155     4.5647   37 C    0 0 0
  29 C    1     2.4204     4.5739   23 C    0 0 0

  31 H    1     1.0853     2.0510   29 C    0 0 0
  31 H    1     2.1531     4.0687   33 C    0 0 0
  31 H    1     2.1545     4.0713   27 C    0 0 0
  31 H    1     2.3323     4.4075   21 H    0 0 0
  31 H    1     2.3509     4.4426   63 H    0 0-1
  31 H    1     2.3701     4.4788   57 O    0 0-1

  33 C    1     1.0846     2.0496   35 H    0 0 0
  33 C    1     1.3892     2.6251   29 C    0 0 0
  33 C    1     1.3971     2.6401   37 C    0 0 0
  33 C    1     2.1531     4.0687   31 H    0 0 0
  33 C    1     2.4162     4.5659   39 C    0 0 0
  33 C    1     2.4170     4.5675   27 C    0 0 0

  35 H    1     1.0846     2.0496   33 C    0 0 0
  35 H    1     2.1480     4.0592   29 C    0 0 0
  35 H    1     2.1524     4.0675   37 C    0 0 0
  35 H    1     2.4319     4.5957   61 O    0 0 0
  35 H    1     2.4376     4.6065   25 H    0 0-1
  35 H    1     2.4822     4.6907   31 H    0 0 0

  37 C    1     1.3971     2.6401   33 C    0 0 0
  37 C    1     1.3974     2.6407   39 C    0 0 0
  37 C    1     1.4788     2.7944   43 C    0 0 0
  37 C    1     2.1479     4.0588   41 H    0 0 0
  37 C    1     2.1524     4.0675   35 H    0 0 0
  37 C    1     2.3503     4.4414   61 O    0 0 0

  39 C    1     1.0840     2.0484   41 H    0 0 0
  39 C    1     1.3835     2.6143   23 C    0 0 0
  39 C    1     1.3974     2.6407   37 C    0 0 0
  39 C    1     2.1523     4.0673   25 H    0 0 0
  39 C    1     2.4130     4.5600   27 C    0 0 0
  39 C    1     2.4162     4.5659   33 C    0 0 0

  41 H    1     1.0840     2.0484   39 C    0 0 0
  41 H    1     2.1459     4.0551   23 C    0 0 0
  41 H    1     2.1479     4.0588   37 C    0 0 0
  41 H    1     2.3877     4.5121   47 H    0 0 0
  41 H    1     2.4886     4.7028   25 H    0 0 0
  41 H    1     2.4990     4.7225   59 O    0 0 0

  43 C    1     1.2260     2.3167   59 O    0 0 0
  43 C    1     1.3242     2.5023   61 O    0 0 0
  43 C    1     1.4788     2.7944   37 C    0 0 0
  43 C    1     2.3541     4.4485   45 C    0 0-1
  43 C    1     2.4679     4.6637   39 C    0 0 0
  43 C    1     2.5169     4.7563   33 C    0 0 0

  45 C    1     1.0872     2.0545   47 H    0 0 0
  45 C    1     1.0914     2.0625   51 H    0 0 0
  45 C    1     1.0918     2.0632   49 H    0 0 1
  45 C    1     1.4377     2.7170   61 O    0 0 1
  45 C    1     2.3541     4.4485   43 C    0 0 1
  45 C    1     2.6496     5.0071   59 O    0 0 1

  47 H    1     1.0872     2.0545   45 C    0 0 0
  47 H    1     1.7825     3.3685   51 H    0 0 0
  47 H    1     1.7900     3.3826   49 H    0 0 1
  47 H    1     2.0108     3.7998   61 O    0 0 1
  47 H    1     2.3877     4.5121   41 H    0 0 0
  47 H    1     2.3974     4.5304   65 H    0 0 0

  49 H    1     1.0918     2.0632   45 C    0 0-1
  49 H    1     1.7900     3.3826   47 H    0 0-1
  49 H    1     1.7963     3.3945   51 H    0 0-1
  49 H    1     2.0947     3.9585   61 O    0 0 0
  49 H    1     2.4207     4.5745   48 H    0 0 0
  49 H    1     2.4209     4.5748   66 H    1 0 0

  51 H    1     1.0914     2.0625   45 C    0 0 0
  51 H    1     1.7825     3.3685   47 H    0 0 0
  51 H    1     1.7963     3.3945   49 H    0 0 1
  51 H    1     2.0800     3.9306   61 O    0 0 1
  51 H    1     2.4436     4.6177   60 O    0 1 0
  51 H    1     2.5034     4.7307   15 H    1 0 1

  53 N    1     1.2900     2.4378   19 C    0 0 0
  53 N    1     1.4003     2.6462   27 C    0 0 0
  53 N    1     1.6937     3.2006   63 H    0 0 0
  53 N    1     2.0842     3.9386   21 H    0 0 0
  53 N    1     2.3837     4.5046   17 C    0 0 0
  53 N    1     2.3946     4.5251   23 C    0 0 0

  55 O    1     0.9772     1.8467   65 H   -1 0 0
  55 O    1     1.3477     2.5467   11 C    0 0 0
  55 O    1     2.3411     4.4240    1 C    0 0 0
  55 O    1     2.4028     4.5406   13 C    0 0 0
  55 O    1     2.4360     4.6033   50 H   -1 0 0
  55 O    1     2.5417     4.8031   47 H   -1 0 0

  57 O    1     0.9982     1.8863   63 H    0 0 0
  57 O    1     1.3422     2.5364    5 C    0 0 0
  57 O    1     2.3489     4.4388    1 C    0 0 0
  57 O    1     2.3701     4.4788   31 H    0 0 1
  57 O    1     2.4079     4.5502   17 C    0 0 0
  57 O    1     2.5435     4.8065   21 H    0 0 1

  59 O    1     1.2260     2.3167   43 C    0 0 0
  59 O    1     1.7728     3.3501   65 H    0 0 0
  59 O    1     2.2387     4.2306   61 O    0 0 0
  59 O    1     2.3843     4.5057   37 C    0 0 0
  59 O    1     2.4436     4.6177   52 H    0 1 0
  59 O    1     2.4990     4.7225   41 H    0 0 0

  61 O    1     1.3242     2.5023   43 C    0 0 0
  61 O    1     1.4377     2.7170   45 C    0 0-1
  61 O    1     2.0108     3.7998   47 H    0 0-1
  61 O    1     2.0800     3.9306   51 H    0 0-1
  61 O    1     2.0947     3.9585   49 H    0 0 0
  61 O    1     2.2387     4.2306   59 O    0 0 0

  63 H    1     0.9982     1.8863   57 O    0 0 0
  63 H    1     1.6937     3.2006   53 N    0 0 0
  63 H    1     1.8872     3.5663    5 C    0 0 0
  63 H    1     2.3034     4.3529   19 C    0 0 0
  63 H    1     2.3509     4.4426   31 H    0 0 1
  63 H    1     2.3784     4.4944   17 C    0 0 0

  65 H    1     0.9772     1.8467   55 O    1 0 0
  65 H    1     1.7728     3.3501   59 O    0 0 0
  65 H    1     1.9152     3.6192   11 C    1 0 0
  65 H    1     2.2695     4.2887   15 H    1 0 0
  65 H    1     2.3974     4.5304   47 H    0 0 0
  65 H    1     2.4209     4.5748   50 H    0 0 0


 FINAL OPTIMIZED GEOMETRY - DIMENSIONALITY OF THE SYSTEM      3
 (NON PERIODIC DIRECTION: LATTICE PARAMETER FORMALLY SET TO 500)
 *******************************************************************************
 LATTICE PARAMETERS (ANGSTROMS AND DEGREES) - BOHR = 0.5291772083 ANGSTROM
 PRIMITIVE CELL - CENTRING CODE 1/0 VOLUME=   585.160921 - DENSITY  1.539 g/cm^3
         A              B              C           ALPHA      BETA       GAMMA 
    14.60243568     6.78282638     5.99802886    90.000000  99.940485  90.000000
 *******************************************************************************
 ATOMS IN THE ASYMMETRIC UNIT   33 - ATOMS IN THE UNIT CELL:   66
     ATOM                 X/A                 Y/B                 Z/C    
 *******************************************************************************
      1 T   6 C    -2.882632909602E-01  1.756879711762E-01  3.565595826622E-01
      2 F   6 C    -2.882632909602E-01 -1.756879711762E-01 -1.434404173378E-01
      3 T   1 H    -2.929064892105E-01  1.142938627476E-01 -4.788646747882E-01
      4 F   1 H    -2.929064892105E-01 -1.142938627476E-01  2.113532521184E-02
      5 T   6 C    -2.017701805298E-01  2.063105380430E-01  2.949492755891E-01
      6 F   6 C    -2.017701805298E-01 -2.063105380430E-01 -2.050507244109E-01
      7 T   6 C    -2.782138137931E-01  3.301540319199E-01 -6.909043729583E-02
      8 F   6 C    -2.782138137931E-01 -3.301540319199E-01  4.309095627042E-01
      9 T   1 H    -2.739712604771E-01  3.877580634147E-01 -2.360086803072E-01
     10 F   1 H    -2.739712604771E-01 -3.877580634147E-01  2.639913196928E-01
     11 T   6 C    -3.686615827369E-01  2.285254554934E-01  2.082579508924E-01
     12 F   6 C    -3.686615827369E-01 -2.285254554934E-01 -2.917420491076E-01
     13 T   6 C    -3.641632950095E-01  3.072912250548E-01 -6.280739766136E-03
     14 F   6 C    -3.641632950095E-01 -3.072912250548E-01  4.937192602339E-01
     15 T   1 H    -4.273031553581E-01  3.499337161425E-01 -1.192716781640E-01
     16 F   1 H    -4.273031553581E-01 -3.499337161425E-01  3.807283218360E-01
     17 T   6 C    -1.955155444873E-01  2.822259750560E-01  7.751193874663E-02
     18 F   6 C    -1.955155444873E-01 -2.822259750560E-01 -4.224880612534E-01
     19 T   6 C    -1.071446631229E-01  3.015934991698E-01  2.009201905345E-03
     20 F   6 C    -1.071446631229E-01 -3.015934991698E-01 -4.979907980947E-01
     21 T   1 H    -1.085281282767E-01  3.417058596137E-01 -1.755876583478E-01
     22 F   1 H    -1.085281282767E-01 -3.417058596137E-01  3.244123416522E-01
     23 T   6 C     1.340490452287E-01  3.307833492063E-01  2.060535328861E-01
     24 F   6 C     1.340490452287E-01 -3.307833492063E-01 -2.939464671139E-01
     25 T   1 H     1.261125704283E-01  3.904099712945E-01  3.694263921411E-01
     26 F   1 H     1.261125704283E-01 -3.904099712945E-01 -1.305736078589E-01
     27 T   6 C     5.496714996962E-02  2.645241319896E-01  5.942081425661E-02
     28 F   6 C     5.496714996962E-02 -2.645241319896E-01 -4.405791857434E-01
     29 T   6 C     6.431212836768E-02  1.824746291849E-01 -1.499750951099E-01
     30 F   6 C     6.431212836768E-02 -1.824746291849E-01  3.500249048901E-01
     31 T   1 H     3.692642376254E-03  1.217534315996E-01 -2.584991705653E-01
     32 F   1 H     3.692642376254E-03 -1.217534315996E-01  2.415008294347E-01
     33 T   6 C     1.512838152985E-01  1.725884580492E-01 -2.135183164109E-01
     34 F   6 C     1.512838152985E-01 -1.725884580492E-01  2.864816835891E-01
     35 T   1 H     1.585186135932E-01  1.094707742993E-01 -3.757150170834E-01
     36 F   1 H     1.585186135932E-01 -1.094707742993E-01  1.242849829166E-01
     37 T   6 C     2.297182693424E-01  2.432344845216E-01 -6.876577644668E-02
     38 F   6 C     2.297182693424E-01 -2.432344845216E-01  4.312342235533E-01
     39 T   6 C     2.205101682996E-01  3.211164090456E-01  1.419236006652E-01
     40 F   6 C     2.205101682996E-01 -3.211164090456E-01 -3.580763993348E-01
     41 T   1 H     2.817314589936E-01  3.740318935876E-01  2.544168695820E-01
     42 F   1 H     2.817314589936E-01 -3.740318935876E-01 -2.455831304180E-01
     43 T   6 C     3.227919632443E-01  2.459601944219E-01 -1.343337619693E-01
     44 F   6 C     3.227919632443E-01 -2.459601944219E-01  3.656662380307E-01
     45 T   6 C     4.105638339629E-01  1.901751236344E-01 -4.226472922538E-01
     46 F   6 C     4.105638339629E-01 -1.901751236344E-01  7.735270774622E-02
     47 T   1 H     3.951607560736E-01  1.337462008993E-01  4.052946046243E-01
     48 F   1 H     3.951607560736E-01 -1.337462008993E-01 -9.470539537573E-02
     49 T   1 H     4.643284742499E-01  1.010683923985E-01 -3.203153041553E-01
     50 F   1 H     4.643284742499E-01 -1.010683923985E-01  1.796846958447E-01
     51 T   1 H     4.322468831857E-01  3.440592525248E-01 -4.247011761452E-01
     52 F   1 H     4.322468831857E-01 -3.440592525248E-01  7.529882385483E-02
     53 T   7 N    -2.993440610887E-02  2.698298889905E-01  1.378377995630E-01
     54 F   7 N    -2.993440610887E-02 -2.698298889905E-01 -3.621622004370E-01
     55 T   8 O    -4.504400373059E-01  2.039940083014E-01  2.799937145591E-01
     56 F   8 O    -4.504400373059E-01 -2.039940083014E-01 -2.200062854409E-01
     57 T   8 O    -1.252796721826E-01  1.640942643718E-01  4.460639144253E-01
     58 F   8 O    -1.252796721826E-01 -1.640942643718E-01 -5.393608557470E-02
     59 T   8 O     3.922514943735E-01  3.115221621974E-01 -1.275117058823E-02
     60 F   8 O     3.922514943735E-01 -3.115221621974E-01  4.872488294118E-01
     61 T   8 O     3.240314398725E-01  1.763259618067E-01 -3.400401993986E-01
     62 F   8 O     3.240314398725E-01 -1.763259618067E-01  1.599598006014E-01
     63 T   1 H    -7.097156436948E-02  1.956466900783E-01  3.716176982253E-01
     64 F   1 H    -7.097156436948E-02 -1.956466900783E-01 -1.283823017747E-01
     65 T   1 H     4.985463770689E-01  2.472889821072E-01  1.627292580723E-01
     66 F   1 H     4.985463770689E-01 -2.472889821072E-01 -3.372707419277E-01

 T = ATOM BELONGING TO THE ASYMMETRIC UNIT
 INFORMATION **** fort.34 **** GEOMETRY OUTPUT FILE

 DIRECT LATTICE VECTORS CARTESIAN COMPONENTS (ANGSTROM)
          X                    Y                    Z
   0.146021963457E+02   0.872926556887E-15  -0.836042187915E-01
   0.547533435137E-18   0.678282637723E+01  -0.219207593703E-17
  -0.100156825565E+01   0.357868578123E-15   0.591381529023E+01


 CARTESIAN COORDINATES - PRIMITIVE CELL
 *******************************************************************************
 *      ATOM          X(ANGSTROM)         Y(ANGSTROM)         Z(ANGSTROM)
 *******************************************************************************
    1     6 C    -4.566395933088E+00  1.191661005056E+00  2.132727539073E+00
    2     6 C    -4.065611805263E+00 -1.191661005056E+00 -8.241801060421E-01
    3     1 H    -3.797462409349E+00  7.752354270000E-01 -2.807429017504E+00
    4     1 H    -4.298246537173E+00 -7.752354270000E-01  1.494786276112E-01
    5     6 C    -3.241699624252E+00  1.399368559339E+00  1.761144374140E+00
    6     6 C    -2.740915496427E+00 -1.399368559339E+00 -1.195763270975E+00
    7     6 C    -3.993333946316E+00  2.239377476255E+00 -3.853282359295E-01
    8     6 C    -3.492549818491E+00 -2.239377476255E+00 -3.342235881044E+00
    9     1 H    -3.764203336300E+00  2.630095620513E+00 -1.372806589024E+00
   10     1 H    -4.264987464125E+00 -2.630095620513E+00  1.584101056091E+00
   11     6 C    -5.591853368825E+00  1.550048487389E+00  1.262420717923E+00
   12     6 C    -5.091069241000E+00 -1.550048487389E+00 -1.694486927192E+00
   13     6 C    -5.311293346038E+00  2.084303026793E+00 -6.697547071132E-03
   14     6 C    -4.810509218213E+00 -2.084303026793E+00 -2.963605192186E+00
   15     1 H    -6.120105847010E+00  2.373539640133E+00 -6.696263275268E-01
   16     1 H    -5.619321719185E+00 -2.373539640133E+00 -3.626533972642E+00
   17     6 C    -2.932589866514E+00  1.914289787949E+00  4.747372128936E-01
   18     6 C    -2.431805738690E+00 -1.914289787949E+00 -2.482170432221E+00
   19     6 C    -1.566559761157E+00  2.045656341370E+00  2.083979480705E-02
   20     6 C    -1.065775633332E+00 -2.045656341370E+00 -2.936067850308E+00
   21     1 H    -1.408886013439E+00  2.317731517842E+00 -1.029319569331E+00
   22     1 H    -1.909670141263E+00 -2.317731517842E+00  1.927588075783E+00
   23     6 C     1.751033800874E+00  2.243646026145E+00  1.207355467681E+00
   24     6 C     2.251817928698E+00 -2.243646026145E+00 -1.749552177433E+00
   25     1 H     1.471514767882E+00  2.648083051230E+00  2.174175903528E+00
   26     1 H     1.972298895707E+00 -2.648083051230E+00 -7.827317415870E-01
   27     6 C     7.431271151333E-01  1.794221259873E+00  3.468082342762E-01
   28     6 C     1.243911242958E+00 -1.794221259873E+00 -2.610099410838E+00
   29     6 C     1.089308620232E+00  1.237693728011E+00 -8.923017758656E-01
   30     6 C     5.885244924073E-01 -1.237693728011E+00  2.064605869249E+00
   31     1 H     3.128252523623E-01  8.258323873717E-01 -1.529025067882E+00
   32     1 H    -1.879588754624E-01 -8.258323873717E-01  1.427882577233E+00
   33     6 C     2.422929142625E+00  1.170637545662E+00 -1.275355849529E+00
   34     6 C     1.922145014800E+00 -1.170637545662E+00  1.681551795586E+00
   35     1 H     2.691024154410E+00  7.425212554530E-01 -2.235162037650E+00
   36     1 H     2.190240026586E+00 -7.425212554530E-01  7.217456074647E-01
   37     6 C     3.423264891886E+00  1.649817277465E+00 -4.258735166454E-01
   38     6 C     2.922480764061E+00 -1.649817277465E+00  2.531034128469E+00
   39     6 C     3.077786600570E+00  2.178076849436E+00  8.208743793018E-01
   40     6 C     3.578570728395E+00 -2.178076849436E+00 -2.136033265813E+00
   41     1 H     3.859082220698E+00  2.536993393751E+00  1.481020434888E+00
   42     1 H     4.359866348523E+00 -2.536993393751E+00 -1.475887210226E+00
   43     6 C     4.848016057743E+00  1.668305294473E+00 -8.214118254476E-01
   44     6 C     4.347231929918E+00 -1.668305294473E+00  2.135495819667E+00
   45     6 C     5.416875571559E+00  1.289924844880E+00  3.380032402322E+00
   46     6 C     5.917659699384E+00 -1.289924844880E+00  4.231247572078E-01
   47     1 H     5.364284738106E+00  9.071772593138E-01  2.363800323566E+00
   48     1 H     5.865068865931E+00 -9.071772593138E-01 -5.931073215488E-01
   49     1 H     7.101033190316E+00  6.855293578645E-01 -1.933105362761E+00
   50     1 H     6.600249062491E+00 -6.855293578645E-01  1.023802282354E+00
   51     1 H     5.735552818590E+00  2.333694173355E+00  3.366073317970E+00
   52     1 H     6.236336946415E+00 -2.333694173355E+00  4.091656728552E-01
   53     7 N    -5.751620399631E-01  1.830209288410E+00  8.176499292647E-01
   54     7 N    -7.437791213837E-02 -1.830209288410E+00 -2.139257715850E+00
   55     8 O    -6.857846682969E+00  1.383655940304E+00  1.693489797759E+00
   56     8 O    -6.357062555144E+00 -1.383655940304E+00 -1.263417847355E+00
   57     8 O    -2.276121828009E+00  1.113022904733E+00  2.648413506671E+00
   58     8 O    -1.775337700184E+00 -1.113022904733E+00 -3.084941384435E-01
   59     8 O     5.740504505402E+00  2.113000738844E+00 -1.082019473499E-01
   60     8 O     5.239720377578E+00 -2.113000738844E+00  2.848705697765E+00
   61     8 O     5.072144176547E+00  1.195988384733E+00 -2.038025325890E+00
   62     8 O     4.571360048722E+00 -1.195988384733E+00  9.188823192242E-01
   63     1 H    -1.408541207661E+00  1.327037530081E+00  2.203611948080E+00
   64     1 H    -9.077570798367E-01 -1.327037530081E+00 -7.532956970347E-01
   65     1 H     7.116887626225E+00  1.677318230635E+00  9.206701941692E-01
   66     1 H    -6.984524591605E+00 -1.677318230635E+00 -1.952633232154E+00

 ****    2 SYMMOPS - TRANSLATORS IN FRACTIONAL UNITS
 **** MATRICES AND TRANSLATORS IN THE CRYSTALLOGRAPHIC REFERENCE FRAME
   V INV                    ROTATION MATRICES                   TRANSLATORS
   1   1  1.00  0.00  0.00  0.00  1.00  0.00  0.00  0.00  1.00  0.00  0.00  0.00
   2   2  1.00  0.00  0.00  0.00 -1.00  0.00 -0.00 -0.00  1.00  0.00 -0.00  0.50
 TTTTTTTTTTTTTTTTTTTTTTTTTTTTTT END         TELAPSE    18475.68 TCPU    18372.08
 EEEEEEEEEE TERMINATION  DATE 24 07 2024 TIME 20:05:15.4
pe files deleted
rm: cannot remove 'fort.24': No such file or directory
rm: cannot remove 'fort.25': No such file or directory
rm: cannot remove 'fort.89': No such file or directory
rm: cannot remove 'fort.90': No such file or directory
rm: cannot remove 'fort.85': No such file or directory
rm: cannot remove 'fort.32': No such file or directory
TMPDIR copied back to SUBMIT_DIR
TMPDIR deleted
